# File generated with Atomsk by j281j388 on 2026-06-01 13:00:11

864  atoms
3  atom types

0.000000000000      20.251000000000  xlo xhi
0.000000000000      14.320000000000  ylo yhi
0.000000000000      35.707675000000  zlo zhi

Masses

1   28.08500000             # Si
2   15.99900000             # O
3   1.00800000              # H

Atoms # atomic

1    1        2.398388000000       1.898900000000      12.760788000000
2    2        2.415565000000       3.157916000000      11.660347000000
3    3        1.578495000000       3.333061000000      11.172712000000
4    1       10.362192000000       7.847744000000      12.693752000000
5    2       10.098416000000       6.614644000000      11.643043000000
6    3       10.941274000000       6.152166000000      11.410805000000
7    1        0.102300000000       7.395087000000      12.183290000000
8    2        0.261223000000       6.546316000000      10.756984000000
9    3        1.105234000000       6.865437000000      10.256882000000
10    1        5.324049000000       7.644208000000      12.703906000000
11    2        4.797345000000       6.851440000000      11.316672000000
12    3        5.423426000000       6.800392000000      10.564669000000
13    1        7.714197000000       2.040195000000      12.502422000000
14    2        7.517165000000       2.987806000000      11.115745000000
15    3        6.532068000000       3.156926000000      10.821389000000
16    1       20.008354000000       0.044042000000      12.941341000000
17    2       19.942432000000      13.399939000000      11.573771000000
18    3       19.980728000000      12.445279000000      11.873776000000
19    1       20.144093000000       7.706992000000      22.461481000000
20    2       19.545200000000       6.436407000000      23.422722000000
21    3       18.551723000000       6.485925000000      23.344904000000
22    1        4.866758000000       7.465278000000      22.923918000000
23    2        4.694504000000       6.551287000000      24.288948000000
24    3        4.546432000000       7.085420000000      25.226395000000
25    1        3.140822000000       1.869511000000      22.914181000000
26    2        2.787789000000       2.917843000000      24.033848000000
27    3        2.481740000000       2.655216000000      24.960627000000
28    1        8.188281000000       1.843518000000      22.879057000000
29    2        7.691906000000       2.729337000000      24.195074000000
30    3        6.802563000000       3.267673000000      24.217157000000
31    1        2.762348000000       9.357198000000      12.548269000000
32    2        3.041415000000       9.872581000000      10.978793000000
33    3        3.777356000000      10.526620000000      10.966577000000
34    1        7.786870000000       9.634233000000      12.815307000000
35    2        7.757822000000      11.043379000000      11.891891000000
36    3        7.440489000000      11.932908000000      12.304105000000
37    1        5.032934000000       0.364723000000      12.933609000000
38    2        5.454870000000      13.370458000000      12.064033000000
39    3        5.550652000000      13.422072000000      11.030765000000
40    1        5.836775000000      14.250043000000      23.276838000000
41    2        5.896143000000      13.659966000000      24.852125000000
42    3        6.725930000000      13.818585000000      25.383453000000
43    1        2.489889000000       9.492409000000      22.683201000000
44    2        2.376374000000      10.673805000000      23.964912000000
45    3        3.260742000000      10.711772000000      24.520473000000
46    1        0.400575000000       0.324389000000      22.847942000000
47    2       20.120138000000      14.147513000000      24.314737000000
48    3       20.155691000000      13.137113000000      24.512798000000
49    1        7.566553000000       8.960792000000      23.194212000000
50    2        7.104776000000       9.642384000000      24.647293000000
51    3        7.963681000000       9.968260000000      25.090599000000
52    1       10.658857000000      14.143298000000      23.254244000000
53    2       10.498557000000      13.604044000000      24.775545000000
54    3       11.110229000000      14.179050000000      25.489948000000
55    1       12.968720000000       1.968532000000      12.663818000000
56    2       13.336746000000       2.688787000000      11.269739000000
57    3       13.261176000000       2.088815000000      10.438111000000
58    1       15.079341000000       7.829694000000      12.649193000000
59    2       14.676925000000       6.918000000000      11.301377000000
60    3       13.783117000000       6.467056000000      11.110711000000
61    1       17.699984000000       2.042393000000      12.385029000000
62    2       18.189770000000       2.225477000000      10.841233000000
63    3       18.898346000000       2.998242000000      10.756090000000
64    1       10.306681000000       7.296978000000      23.100067000000
65    2       10.670902000000       6.281471000000      24.393398000000
66    3       11.280076000000       6.378723000000      25.239693000000
67    1       12.881378000000       1.727895000000      22.571320000000
68    2       12.706756000000       2.801389000000      23.815741000000
69    3       11.803441000000       3.050045000000      24.110806000000
70    1       18.196581000000       2.308779000000      22.398714000000
71    2       18.301939000000       3.680411000000      23.320192000000
72    3       19.128195000000       4.108246000000      23.110739000000
73    1       15.456979000000       7.791558000000      22.749430000000
74    2       16.622705000000       7.065127000000      23.789661000000
75    3       16.377590000000       7.210292000000      24.762217000000
76    1       12.676517000000       9.725731000000      12.719174000000
77    2       12.321152000000      11.005076000000      11.710267000000
78    3       11.623437000000      10.874000000000      11.067070000000
79    1       17.883919000000       9.291423000000      12.615251000000
80    2       17.819750000000      10.766603000000      11.791247000000
81    3       16.891973000000      11.168051000000      11.978558000000
82    1       15.375957000000       0.214672000000      12.888854000000
83    2       15.876493000000      13.442800000000      11.794434000000
84    3       15.850475000000      13.503091000000      10.851932000000
85    1       10.173464000000       0.468272000000      12.950826000000
86    2       10.613517000000      13.456522000000      12.032379000000
87    3       11.346667000000      12.979173000000      12.462916000000
88    1       15.625487000000       0.455778000000      22.890589000000
89    2       15.321692000000      14.241911000000      24.474817000000
90    3       15.154960000000      13.289146000000      24.609671000000
91    1       12.706459000000       9.180758000000      23.072079000000
92    2       12.055907000000       9.886981000000      24.407682000000
93    3       11.024371000000      10.019027000000      24.484722000000
94    1       17.741602000000       9.820230000000      22.574974000000
95    2       17.716364000000      10.460442000000      24.185175000000
96    3       16.903492000000      10.966084000000      24.468254000000
97    1       20.146978000000       5.735762000000      14.832734000000
98    1        2.658722000000       2.213580000000      17.618303000000
99    1        5.216399000000       5.514979000000      14.981122000000
100    1        2.546672000000       3.882560000000      15.083430000000
101    1        7.854191000000       3.716868000000      15.124097000000
102    1        0.140610000000       0.646860000000      17.609972000000
103    1        2.515761000000       3.581261000000      20.358124000000
104    1        0.224935000000       5.674845000000      20.230099000000
105    1        4.989620000000       5.578661000000      20.387423000000
106    1        7.419148000000       3.746173000000      20.410082000000
107    1        7.737025000000       1.818877000000      17.797075000000
108    1        5.119361000000      12.924699000000      15.442554000000
109    1        7.845146000000      11.212839000000      15.508849000000
110    1        0.049989000000      12.541801000000      15.646566000000
111    1        2.736846000000      10.969930000000      15.175344000000
112    1        7.517032000000       9.187689000000      17.822811000000
113    1        5.054035000000       0.248321000000      18.071693000000
114    1       20.249657000000       7.251144000000      17.626484000000
115    1        2.378067000000      11.126250000000      19.975882000000
116    1        0.107581000000      13.082822000000      20.085402000000
117    1        5.019901000000      12.700027000000      20.673090000000
118    1        7.468288000000      10.702482000000      20.497217000000
119    1        2.533814000000       8.911417000000      17.602802000000
120    1        5.135396000000       7.161214000000      17.749590000000
121    1       10.236038000000       5.927853000000      15.121072000000
122    1       15.165260000000       7.215642000000      17.896955000000
123    1       15.181267000000       5.930811000000      15.151296000000
124    1       17.630531000000       4.057465000000      14.600967000000
125    1       12.725719000000       3.988091000000      15.066476000000
126    1       12.557339000000       3.789991000000      20.273571000000
127    1       14.942211000000       5.553595000000      20.449476000000
128    1       17.713169000000       3.946565000000      19.877966000000
129    1       17.771679000000       2.313161000000      17.208679000000
130    1        9.910205000000       5.682421000000      20.416519000000
131    1       12.863547000000       2.314566000000      17.482794000000
132    1       15.335499000000       0.471294000000      17.618643000000
133    1       10.281144000000      13.259077000000      15.553082000000
134    1       12.784474000000      11.319794000000      15.362499000000
135    1       17.640007000000       8.885647000000      18.163513000000
136    1       17.933628000000      10.521343000000      15.480037000000
137    1       15.564924000000      12.743424000000      15.338040000000
138    1       10.252075000000       7.615045000000      17.977772000000
139    1       12.969245000000       9.150454000000      17.691689000000
140    1       12.818148000000      10.995590000000      20.483461000000
141    1       10.058383000000      12.502459000000      20.676111000000
142    1       15.153063000000      13.128947000000      20.258087000000
143    1       17.664724000000      11.414944000000      20.025518000000
144    1       10.531526000000       0.306510000000      18.367214000000
145    2        8.020553000000       2.717969000000      16.421980000000
146    2        8.310258000000       2.901509000000      13.758664000000
147    2        6.156565000000       1.554067000000      12.856181000000
148    2        1.662752000000       1.057962000000      16.978086000000
149    2        8.852641000000       5.026183000000      15.173790000000
150    2        0.089436000000       6.915624000000      16.023922000000
151    2        6.321035000000       4.297853000000      14.948606000000
152    2        0.906454000000       1.253561000000      12.954788000000
153    2        3.694556000000       0.970089000000      12.302347000000
154    2        2.623291000000       2.394085000000      14.356951000000
155    2        3.718774000000       4.861271000000      14.499522000000
156    2        2.717361000000       3.631592000000      16.684612000000
157    2        1.151583000000       4.701443000000      14.764715000000
158    2        5.043721000000       6.088451000000      16.508900000000
159    2        5.755291000000       6.657417000000      13.963497000000
160    2        8.762899000000       0.809190000000      12.074498000000
161    2        4.177653000000       1.635787000000      17.932446000000
162    2       19.829006000000       6.424903000000      13.380651000000
163    2        2.026454000000       2.629496000000      19.088396000000
164    2        1.298015000000       4.547591000000      20.876833000000
165    2        3.673228000000       4.685774000000      19.771078000000
166    2        3.268409000000       2.710519000000      21.513897000000
167    2        0.149634000000       7.165368000000      20.957708000000
168    2        4.717667000000       1.280896000000      23.200411000000
169    2        1.965719000000       0.745318000000      22.996397000000
170    2        4.334180000000       6.653478000000      21.498039000000
171    2        5.767659000000       6.423560000000      19.173870000000
172    2        7.063882000000       2.871343000000      18.949757000000
173    2        8.480535000000       4.911472000000      20.028749000000
174    2        6.116302000000       4.548829000000      21.100361000000
175    2        8.204549000000       2.797848000000      21.510885000000
176    2        7.276373000000       0.431359000000      22.749754000000
177    2        0.517069000000       5.964693000000      18.626875000000
178    2        9.648005000000       1.168078000000      22.977320000000
179    2        9.335672000000       1.448395000000      18.266790000000
180    2       10.060607000000       7.058607000000      19.483828000000
181    2        6.669286000000       0.517835000000      17.666500000000
182    2        7.799516000000       9.938770000000      14.444573000000
183    2       19.857971000000      13.680554000000      16.806648000000
184    2        4.665686000000      13.359527000000      16.976961000000
185    2       20.159742000000      13.290668000000      14.215289000000
186    2        4.050387000000       8.577731000000      13.324016000000
187    2        1.599851000000       8.198790000000      12.486149000000
188    2        1.672906000000      12.031098000000      15.887450000000
189    2        2.300366000000      10.608757000000      13.589472000000
190    2        4.246992000000      11.609009000000      15.077000000000
191    2        2.756998000000       9.537168000000      16.073124000000
192    2        8.837840000000       8.332492000000      17.449026000000
193    2        7.621327000000      10.665133000000      17.100168000000
194    2        6.736355000000      12.466273000000      15.236787000000
195    2        4.696366000000      14.218819000000      14.487569000000
196    2        9.297071000000      11.926697000000      15.353281000000
197    2        6.674616000000       8.528311000000      12.244563000000
198    2        9.289335000000       9.065910000000      12.395733000000
199    2        0.958733000000       8.572212000000      17.898336000000
200    2        2.929521000000      10.154236000000      18.719517000000
201    2        1.066003000000      11.907826000000      19.377474000000
202    2        3.405053000000      12.326152000000      20.471638000000
203    2        2.237131000000      10.087941000000      21.184370000000
204    2        0.450159000000       0.174011000000      19.195839000000
205    2        5.321225000000      13.108133000000      22.268570000000
206    2        5.181437000000      13.906732000000      19.565641000000
207    2        7.572762000000       9.467981000000      19.472984000000
208    2        8.595151000000      11.882276000000      20.297295000000
209    2        6.025418000000      11.420490000000      20.197065000000
210    2        7.671382000000      10.193479000000      22.065506000000
211    2        6.512002000000       7.865986000000      22.671078000000
212    2        4.062041000000       8.931478000000      22.936834000000
213    2        3.537706000000       7.647424000000      17.905893000000
214    2        1.271990000000       8.366892000000      23.060844000000
215    2        6.197577000000       8.378964000000      17.305567000000
216    2        9.058372000000       8.294866000000      23.485159000000
217    2        0.386373000000      13.405387000000      21.729345000000
218    2       12.034670000000       0.957064000000      18.113205000000
219    2       18.514496000000       0.744912000000      13.014847000000
220    2       18.811707000000       4.980919000000      15.299226000000
221    2       19.364016000000       1.889103000000      17.394302000000
222    2       18.106424000000       3.435271000000      13.149178000000
223    2       17.440027000000       2.773100000000      15.578568000000
224    2       11.285021000000       1.755401000000      12.646009000000
225    2       13.764352000000       0.521618000000      12.934409000000
226    2       10.527127000000       6.342903000000      16.736240000000
227    2       13.280901000000       2.937263000000      13.954366000000
228    2       12.044137000000       3.150313000000      16.324366000000
229    2       14.004629000000       4.792589000000      15.701546000000
230    2       11.476865000000       4.965938000000      14.518804000000
231    2       16.114166000000       1.691487000000      12.636413000000
232    2       14.733757000000       7.151120000000      14.128534000000
233    2       15.820395000000       6.558282000000      16.542217000000
234    2       16.329582000000       5.071025000000      14.380188000000
235    2       10.093338000000       7.320812000000      14.239832000000
236    2       13.209921000000       3.369688000000      18.748547000000
237    2       11.096613000000       4.574044000000      20.413488000000
238    2       13.799195000000       4.477112000000      21.037418000000
239    2       12.366728000000       2.328343000000      21.136429000000
240    2       14.494749000000       1.613798000000      22.499407000000
241    2       12.240315000000       0.233961000000      22.894753000000
242    2       15.064028000000       6.783232000000      21.530128000000
243    2       14.491435000000       6.224357000000      19.031490000000
244    2       17.645906000000       3.479330000000      18.290781000000
245    2       19.002867000000       4.941375000000      20.251575000000
246    2       16.424929000000       4.779544000000      20.470785000000
247    2       17.799799000000       2.565244000000      20.767984000000
248    2       19.710352000000       1.624915000000      22.358208000000
249    2       16.894464000000       0.976789000000      17.591763000000
250    2        9.759524000000       6.143919000000      21.989450000000
251    2       17.027124000000       1.223234000000      22.946125000000
252    2       14.305837000000       1.585790000000      16.959217000000
253    2       16.091030000000       8.245951000000      18.757309000000
254    2       16.627771000000       8.216510000000      12.290981000000
255    2       10.215223000000      13.513288000000      17.150095000000
256    2       19.166992000000       8.572474000000      11.978656000000
257    2       18.775684000000       7.715395000000      18.169207000000
258    2       14.405663000000       9.428704000000      12.696200000000
259    2       11.875730000000       8.357844000000      12.262458000000
260    2       12.845568000000      10.625303000000      16.838224000000
261    2       12.265428000000      10.208227000000      14.245395000000
262    2       14.222159000000      11.794667000000      14.858575000000
263    2       11.765749000000      12.776855000000      15.121269000000
264    2       15.805264000000      13.944404000000      14.332879000000
265    2        9.824697000000       0.266535000000      14.617969000000
266    2       17.449839000000       9.496033000000      16.686937000000
267    2       15.299603000000      13.330808000000      16.848053000000
268    2       16.879827000000      11.711629000000      15.217988000000
269    2       18.107309000000       9.450800000000      14.227541000000
270    2       19.372578000000      11.139030000000      15.828616000000
271    2       11.366787000000       8.689808000000      17.711142000000
272    2       13.168888000000       9.798738000000      19.283991000000
273    2       11.149562000000      11.261914000000      20.363028000000
274    2       13.621484000000      12.482012000000      20.444796000000
275    2       13.186278000000      10.380805000000      22.006222000000
276    2       14.153156000000       8.458705000000      23.461662000000
277    2       10.059525000000      12.949721000000      22.244328000000
278    2       11.509109000000       8.088635000000      22.448942000000
279    2       10.387401000000      13.851856000000      19.765230000000
280    2       15.085151000000       0.168673000000      19.269276000000
281    2       15.695885000000      13.572716000000      21.777487000000
282    2       18.091990000000      10.012003000000      19.275372000000
283    2       18.832127000000      12.621858000000      19.670671000000
284    2       16.120440000000      11.939547000000      19.605110000000
285    2       17.755196000000      11.208232000000      21.694666000000
286    2       19.054255000000       8.914563000000      22.332090000000
287    2       16.397856000000       8.985995000000      22.132534000000
288    2       13.865496000000       7.973838000000      17.120115000000
289    3       15.562437000000      12.287914000000      26.811571000000
290    3       14.550094000000      11.359933000000      26.052177000000
291    2       14.841352000000      12.308053000000      26.110193000000
292    3       19.362104000000      13.780723000000      27.765787000000
293    3        0.266714000000      12.957103000000      28.544941000000
294    2       19.645582000000      13.440903000000      28.601833000000
295    3       16.184179000000       6.939015000000      29.856903000000
296    3       17.107653000000       8.172444000000      29.428930000000
297    2       16.524927000000       7.812587000000      30.168463000000
298    3       12.522154000000      11.848037000000       3.130139000000
299    3       11.540232000000      11.599758000000       4.172112000000
300    2       11.625890000000      11.347673000000       3.183999000000
301    3        0.938902000000       2.760280000000      32.420906000000
302    3       19.846415000000       3.535525000000      32.739285000000
303    2        0.420228000000       3.076018000000      33.216446000000
304    3        5.334753000000      11.111023000000      28.869520000000
305    3        5.610532000000      10.727623000000      30.415609000000
306    2        5.951118000000      10.588120000000      29.484571000000
307    3       19.446953000000      13.891730000000      34.561146000000
308    3       17.840071000000      13.953980000000      34.284546000000
309    2       18.563297000000      13.275518000000      34.564297000000
310    3        0.886292000000       0.268647000000      33.346584000000
311    3        0.247542000000       1.659633000000      33.899361000000
312    2        0.404860000000       0.667170000000      34.113091000000
313    3       11.395251000000       6.364267000000      33.768726000000
314    3       10.004308000000       7.230419000000      34.089493000000
315    2       10.671923000000       6.541420000000      34.442490000000
316    3        2.708860000000      12.325624000000       7.919603000000
317    3        4.096091000000      12.521731000000       8.600776000000
318    2        3.609445000000      11.974024000000       7.954000000000
319    3        7.087703000000       8.293113000000       1.623793000000
320    3        5.776026000000       8.205935000000       2.533775000000
321    2        6.119447000000       7.927005000000       1.575093000000
322    3        6.668448000000       9.038179000000       6.260584000000
323    3        4.989240000000       8.932934000000       6.732824000000
324    2        5.840244000000       8.437113000000       6.230386000000
325    3       11.627090000000       8.470555000000       1.711608000000
326    3       11.312469000000       9.386673000000       3.002505000000
327    2       11.117745000000       8.500045000000       2.646566000000
328    3       13.658454000000       5.961530000000      27.179625000000
329    3       14.726779000000       4.716058000000      26.995995000000
330    2       14.580159000000       5.639323000000      27.392521000000
331    3       19.803810000000      11.798697000000       3.630275000000
332    3       19.160204000000      10.440286000000       3.279912000000
333    2       19.438147000000      11.324851000000       2.867238000000
334    3        0.487258000000      10.865041000000       1.946750000000
335    3        1.770020000000      11.588695000000       1.430541000000
336    2        1.294632000000      10.709346000000       1.397337000000
337    3       10.890821000000       3.429039000000      27.007555000000
338    3       11.719605000000       3.126096000000      28.286030000000
339    2       11.576218000000       3.797598000000      27.614647000000
340    3       18.246107000000      13.152228000000      30.343651000000
341    3       16.922586000000      13.869725000000      30.689739000000
342    2       17.332878000000      12.931021000000      30.615425000000
343    3        2.230806000000       6.246809000000      32.761887000000
344    3        1.868026000000       7.162426000000      31.536932000000
345    2        2.490588000000       7.085899000000      32.357834000000
346    3        7.175478000000       3.202827000000       6.046864000000
347    3        6.106153000000       3.656252000000       5.010401000000
348    2        6.964362000000       3.954846000000       5.357283000000
349    3       16.148897000000      14.273157000000       8.649286000000
350    3       15.231304000000      13.152512000000       8.092170000000
351    2       15.391563000000      13.687528000000       8.887554000000
352    3        3.124158000000       8.679802000000       8.190258000000
353    3        3.551120000000      10.162921000000       7.751651000000
354    2        3.495844000000       9.247363000000       7.435446000000
355    3        1.147418000000      10.877218000000       5.341354000000
356    3        1.513684000000      12.148616000000       4.565649000000
357    2        0.789506000000      11.836279000000       5.132895000000
358    3        5.079406000000       2.070432000000      27.405169000000
359    3        5.439745000000       3.272973000000      26.430208000000
360    2        5.555921000000       2.945405000000      27.400133000000
361    3       19.284269000000       4.967285000000      27.971043000000
362    3        0.024569000000       5.884797000000      28.765186000000
363    2       19.675041000000       5.849658000000      27.995914000000
364    3       19.820621000000       4.928118000000       7.661864000000
365    3       19.559954000000       3.410522000000       7.493237000000
366    2       20.165613000000       4.016692000000       7.954508000000
367    3       14.914374000000       5.308395000000      29.028801000000
368    3       16.122017000000       4.575294000000      29.937223000000
369    2       15.325845000000       5.206125000000      29.948872000000
370    3       14.451872000000      11.452071000000       6.169202000000
371    3       13.528120000000      12.782716000000       6.218927000000
372    2       14.490316000000      12.497758000000       6.301816000000
373    3        4.755047000000       0.596427000000      33.989952000000
374    3        4.585022000000      13.339569000000      34.218906000000
375    2        4.063533000000      14.156430000000      34.055756000000
376    3       13.743900000000      13.806624000000      29.856028000000
377    3       13.151380000000       0.782686000000      29.649553000000
378    2       14.022883000000       0.353263000000      29.552998000000
379    3       17.164162000000       6.287134000000       6.101597000000
380    3       15.977893000000       5.357040000000       6.647601000000
381    2       16.148809000000       6.215652000000       6.074538000000
382    3       18.193834000000      12.200942000000      33.470917000000
383    3       17.899618000000      11.965612000000      31.979937000000
384    2       18.070257000000      11.495218000000      32.803944000000
385    3       16.787724000000       4.509946000000      34.929371000000
386    3       16.485298000000       5.914044000000      34.432190000000
387    2       16.582649000000       4.971373000000      34.089233000000
388    3       16.225780000000      11.494491000000       1.452815000000
389    3       14.870467000000      11.590864000000       2.145349000000
390    2       15.379351000000      10.923750000000       1.632521000000
391    3        5.381378000000      11.122314000000      32.899784000000
392    3        5.186515000000       9.665376000000      32.302986000000
393    2        4.904198000000      10.633737000000      32.213749000000
394    3       11.095983000000      13.280429000000       8.811305000000
395    3       12.387218000000      12.799065000000       9.640477000000
396    2       11.825367000000      12.644780000000       8.842410000000
397    3        2.244029000000       5.010868000000       6.208213000000
398    3        1.724372000000       4.286102000000       7.425640000000
399    2        2.561283000000       4.783758000000       7.126231000000
400    3       17.440971000000       9.127265000000       4.025918000000
401    3       18.622318000000       9.321906000000       5.138999000000
402    2       18.443058000000       9.184656000000       4.129028000000
403    3       14.619688000000      11.727674000000      34.243103000000
404    3       13.985715000000      11.433067000000      35.682243000000
405    2       13.787542000000      11.955691000000      34.860271000000
406    3        0.271011000000       6.286242000000       0.370258000000
407    3        1.044255000000       7.572293000000       0.002981000000