# File generated with Atomsk by j281j388 on 2026-06-01 13:00:22

864  atoms
3  atom types

0.000000000000      20.251000000000  xlo xhi
0.000000000000      14.320000000000  ylo yhi
0.000000000000      35.707675000000  zlo zhi

Masses

1   28.08500000             # Si
2   15.99900000             # O
3   1.00800000              # H

Atoms # atomic

1    1        2.376303000000       1.988374000000      12.785207000000
2    2        2.375098000000       3.105839000000      11.620932000000
3    3        1.489219000000       3.373301000000      11.301303000000
4    1       10.387459000000       7.708737000000      12.723180000000
5    2       10.127105000000       6.398304000000      11.774183000000
6    3       10.982883000000       6.041396000000      11.423931000000
7    1        0.132239000000       7.416589000000      12.135552000000
8    2        0.274990000000       6.439695000000      10.813514000000
9    3        1.048542000000       6.759983000000      10.162255000000
10    1        5.329064000000       7.615623000000      12.611311000000
11    2        4.633650000000       6.989087000000      11.287931000000
12    3        5.317023000000       6.508331000000      10.759043000000
13    1        7.703067000000       1.996771000000      12.535881000000
14    2        7.497866000000       2.991589000000      11.217272000000
15    3        6.567441000000       3.116597000000      10.925167000000
16    1       19.992743000000       0.045099000000      12.864657000000
17    2       20.199255000000      13.324669000000      11.533470000000
18    3        0.082291000000      12.467659000000      11.866059000000
19    1       20.154678000000       7.634470000000      22.402672000000
20    2       19.606636000000       6.480562000000      23.475836000000
21    3       18.798014000000       6.872061000000      23.839396000000
22    1        4.870984000000       7.521756000000      22.863638000000
23    2        4.620454000000       6.561640000000      24.189415000000
24    3        4.280309000000       6.950073000000      25.046522000000
25    1        3.138835000000       1.884982000000      22.837864000000
26    2        2.843198000000       3.061047000000      24.105137000000
27    3        2.517994000000       2.531847000000      24.921577000000
28    1        8.246671000000       1.838191000000      22.840511000000
29    2        7.973177000000       2.804033000000      24.151611000000
30    3        7.038389000000       3.181215000000      24.329760000000
31    1        2.753236000000       9.304768000000      12.607727000000
32    2        2.960964000000      10.031207000000      11.066383000000
33    3        2.951986000000      10.994482000000      10.974725000000
34    1        7.825894000000       9.643357000000      12.670086000000
35    2        7.617476000000      10.931193000000      11.666365000000
36    3        7.166313000000      11.718127000000      12.087280000000
37    1        4.966526000000       0.313067000000      12.895744000000
38    2        5.450226000000      13.341668000000      11.986954000000
39    3        5.403906000000      13.450656000000      10.973450000000
40    1        5.710551000000      14.282803000000      23.299294000000
41    2        5.805733000000      13.519315000000      24.805519000000
42    3        6.478576000000      13.996203000000      25.355045000000
43    1        2.430923000000       9.520473000000      22.860163000000
44    2        2.390740000000      10.718968000000      23.938744000000
45    3        3.297171000000      10.877833000000      24.350586000000
46    1        0.344979000000       0.310013000000      22.698395000000
47    2       20.070154000000      14.013296000000      24.155096000000
48    3       20.147461000000      13.001695000000      24.349361000000
49    1        7.641232000000       8.971839000000      23.207037000000
50    2        7.174627000000       9.458644000000      24.755283000000
51    3        7.974288000000       9.798234000000      25.292664000000
52    1       10.614470000000      14.174002000000      23.138710000000
53    2       10.432979000000      13.502828000000      24.691061000000
54    3       10.988477000000      13.848491000000      25.443316000000
55    1       12.886617000000       1.955514000000      12.668033000000
56    2       13.293605000000       2.734900000000      11.232891000000
57    3       13.468366000000       2.057962000000      10.437952000000
58    1       14.909052000000       7.892035000000      12.526288000000
59    2       14.541684000000       6.868962000000      11.310189000000
60    3       13.576077000000       6.470448000000      11.289461000000
61    1       17.702705000000       2.058932000000      12.355663000000
62    2       18.117361000000       2.434839000000      10.745792000000
63    3       19.096102000000       2.874041000000      10.623949000000
64    1       10.363150000000       7.202228000000      23.050236000000
65    2       10.581509000000       6.381258000000      24.412481000000
66    3       11.294575000000       6.344806000000      25.166248000000
67    1       12.791926000000       1.761833000000      22.628149000000
68    2       12.384412000000       2.698789000000      23.984709000000
69    3       11.636234000000       3.281907000000      23.768629000000
70    1       18.107281000000       2.226051000000      22.315432000000
71    2       18.055614000000       3.593854000000      23.377476000000
72    3       18.666044000000       4.356927000000      23.281176000000
73    1       15.555567000000       7.873880000000      22.819160000000
74    2       16.547174000000       7.137603000000      23.887835000000
75    3       16.310003000000       7.095747000000      24.921692000000
76    1       12.685110000000       9.822886000000      12.615294000000
77    2       12.436500000000      10.936051000000      11.462292000000
78    3       11.520830000000      10.742648000000      11.118052000000
79    1       17.874023000000       9.326733000000      12.568821000000
80    2       17.621742000000      10.847689000000      12.008401000000
81    3       16.806820000000      11.407826000000      12.121639000000
82    1       15.411438000000       0.185695000000      12.733810000000
83    2       15.945687000000      13.356316000000      11.623713000000
84    3       15.508648000000      13.373684000000      10.775039000000
85    1       10.258440000000       0.421455000000      12.832315000000
86    2       10.943098000000      13.445199000000      12.113342000000
87    3       11.661131000000      12.876869000000      12.468062000000
88    1       15.569725000000       0.474955000000      22.951124000000
89    2       15.562951000000      14.185906000000      24.463362000000
90    3       15.333197000000      13.332695000000      24.880165000000
91    1       12.725554000000       9.248012000000      23.155924000000
92    2       12.193524000000       9.857246000000      24.600449000000
93    3       11.190983000000      10.095381000000      24.750902000000
94    1       17.686623000000       9.907558000000      22.629169000000
95    2       17.717016000000      10.261749000000      24.184786000000
96    3       16.967894000000      10.812649000000      24.400293000000
97    1       20.187971000000       5.838199000000      14.928922000000
98    1        2.606239000000       2.216741000000      17.697519000000
99    1        5.314801000000       5.419509000000      14.892506000000
100    1        2.602279000000       3.973577000000      15.103810000000
101    1        7.942801000000       3.799629000000      15.162039000000
102    1        0.202449000000       0.640662000000      17.607731000000
103    1        2.628221000000       3.749747000000      20.318682000000
104    1        0.254962000000       5.588024000000      20.062653000000
105    1        4.964757000000       5.614267000000      20.337999000000
106    1        7.421113000000       3.768777000000      20.407318000000
107    1        7.724146000000       2.086227000000      17.777042000000
108    1        5.075129000000      12.828476000000      15.544941000000
109    1        7.766425000000      11.106788000000      15.542208000000
110    1        0.032551000000      12.538143000000      15.597431000000
111    1        2.666962000000      10.866191000000      15.220849000000
112    1        7.495505000000       9.029834000000      17.945477000000
113    1        5.210176000000       0.278997000000      18.117308000000
114    1        0.031233000000       7.209666000000      17.649036000000
115    1        2.360026000000      11.163442000000      20.021936000000
116    1        0.017375000000      13.149894000000      19.983467000000
117    1        5.043776000000      12.688461000000      20.706240000000
118    1        7.472143000000      10.710947000000      20.504650000000
119    1        2.573904000000       9.036634000000      17.742519000000
120    1        5.119447000000       7.079833000000      17.610285000000
121    1       10.375852000000       5.943010000000      15.258878000000
122    1       15.176421000000       7.266080000000      17.942591000000
123    1       15.191721000000       5.952784000000      15.062490000000
124    1       17.695612000000       4.058404000000      14.729902000000
125    1       12.694388000000       3.997668000000      15.090289000000
126    1       12.653063000000       3.775234000000      20.324207000000
127    1       15.027482000000       5.650672000000      20.539005000000
128    1       17.617262000000       3.952153000000      19.798672000000
129    1       17.820341000000       2.300069000000      17.226168000000
130    1        9.957291000000       5.612334000000      20.450680000000
131    1       12.867050000000       2.268814000000      17.544073000000
132    1       15.389714000000       0.437841000000      17.649664000000
133    1       10.206950000000      13.317431000000      15.580750000000
134    1       12.695247000000      11.319086000000      15.217525000000
135    1       17.729527000000       8.795142000000      18.304434000000
136    1       17.893763000000      10.418921000000      15.475667000000
137    1       15.557454000000      12.688138000000      15.296835000000
138    1       10.183710000000       7.498033000000      17.896873000000
139    1       12.952348000000       9.466444000000      17.896885000000
140    1       12.764509000000      11.006132000000      20.510916000000
141    1       10.009372000000      12.571884000000      20.590324000000
142    1       15.116509000000      13.060435000000      20.238134000000
143    1       17.770895000000      11.445525000000      20.045794000000
144    1       10.416415000000       0.420592000000      18.340139000000
145    2        8.041212000000       2.990394000000      16.529446000000
146    2        8.318429000000       2.797901000000      13.884315000000
147    2        6.153494000000       1.566822000000      12.923944000000
148    2        1.631698000000       1.138654000000      16.933388000000
149    2        8.940055000000       5.101230000000      15.236584000000
150    2        0.042494000000       7.060054000000      16.010574000000
151    2        6.357899000000       4.108562000000      14.891403000000
152    2        0.926724000000       1.167351000000      12.738334000000
153    2        3.585196000000       0.973032000000      12.318305000000
154    2        2.728195000000       2.518622000000      14.314583000000
155    2        3.768236000000       4.982971000000      14.422566000000
156    2        2.809133000000       3.496398000000      16.700972000000
157    2        1.155608000000       4.668690000000      14.902399000000
158    2        5.198781000000       5.988708000000      16.436224000000
159    2        5.842793000000       6.408973000000      13.616008000000
160    2        8.825213000000       0.806150000000      12.034939000000
161    2        3.958457000000       1.370425000000      18.223335000000
162    2       20.018265000000       6.413250000000      13.418249000000
163    2        2.021390000000       2.804075000000      19.132826000000
164    2        1.373227000000       4.720748000000      20.861012000000
165    2        3.783103000000       4.747790000000      19.716560000000
166    2        3.356223000000       2.836339000000      21.491472000000
167    2        0.180304000000       7.013545000000      20.876541000000
168    2        4.610139000000       1.154048000000      23.388227000000
169    2        2.002768000000       0.734743000000      22.761871000000
170    2        4.345127000000       6.671470000000      21.459269000000
171    2        5.748936000000       6.317140000000      18.970242000000
172    2        7.108482000000       2.803443000000      19.179554000000
173    2        8.499448000000       4.958009000000      20.020460000000
174    2        6.129877000000       4.575352000000      21.014383000000
175    2        7.961762000000       2.767347000000      21.551645000000
176    2        7.220209000000       0.529605000000      22.819929000000
177    2        0.590264000000       5.943398000000      18.431648000000
178    2        9.791746000000       1.233546000000      22.946892000000
179    2        9.215950000000       1.590467000000      18.368227000000
180    2       10.294326000000       6.899653000000      19.442875000000
181    2        6.682917000000       0.817550000000      17.540222000000
182    2        7.814159000000       9.975444000000      14.323944000000
183    2       19.850138000000      13.648335000000      16.736204000000
184    2        4.777949000000      13.364760000000      17.108421000000
185    2       20.070652000000      13.213908000000      14.118544000000
186    2        4.180985000000       8.643819000000      13.249900000000
187    2        1.559294000000       8.202577000000      12.394630000000
188    2        1.621920000000      12.016172000000      15.731043000000
189    2        2.127690000000      10.448832000000      13.644419000000
190    2        4.152637000000      11.569179000000      15.066473000000
191    2        2.960061000000       9.502307000000      16.130192000000
192    2        8.771405000000       8.104885000000      17.552099000000
193    2        7.491281000000      10.483124000000      17.035925000000
194    2        6.623199000000      12.250715000000      15.300535000000
195    2        4.771400000000      14.024057000000      14.419977000000
196    2        9.164849000000      12.013763000000      15.377503000000
197    2        6.720243000000       8.466688000000      12.447118000000
198    2        9.311166000000       9.002048000000      12.351275000000
199    2        1.077716000000       8.491858000000      17.801582000000
200    2        2.921924000000      10.319230000000      18.690418000000
201    2        0.889844000000      11.804869000000      19.623745000000
202    2        3.454789000000      12.340572000000      20.441256000000
203    2        2.058452000000      10.073012000000      21.252602000000
204    2        0.274375000000       0.202556000000      19.176817000000
205    2        5.147904000000      13.126337000000      22.297081000000
206    2        5.446983000000      13.959622000000      19.662275000000
207    2        7.547442000000       9.323331000000      19.494024000000
208    2        8.591703000000      11.851118000000      20.064344000000
209    2        5.967026000000      11.311620000000      20.416460000000
210    2        7.732196000000      10.222985000000      22.083794000000
211    2        6.522949000000       7.910176000000      22.654699000000
212    2        3.994029000000       8.931825000000      22.941326000000
213    2        3.602018000000       7.686318000000      17.964907000000
214    2        1.243537000000       8.361710000000      23.166307000000
215    2        6.116413000000       8.363772000000      17.285265000000
216    2        9.231746000000       8.385426000000      23.284195000000
217    2        0.335858000000      13.445172000000      21.554434000000
218    2       11.798025000000       1.235744000000      18.320349000000
219    2       18.541031000000       0.754936000000      13.017791000000
220    2       18.894955000000       4.920028000000      15.446853000000
221    2       19.451170000000       1.911524000000      17.308825000000
222    2       18.138735000000       3.423597000000      13.239639000000
223    2       17.448906000000       2.783224000000      15.758450000000
224    2       11.292985000000       1.737272000000      12.824152000000
225    2       13.759933000000       0.605062000000      12.707205000000
226    2       10.741610000000       6.334901000000      16.844086000000
227    2       13.296255000000       3.008004000000      13.908285000000
228    2       12.171148000000       3.074750000000      16.333263000000
229    2       13.884636000000       5.033840000000      15.495645000000
230    2       11.507448000000       4.980975000000      14.535565000000
231    2       16.085556000000       1.695804000000      12.513421000000
232    2       14.681995000000       7.272642000000      14.084822000000
233    2       15.793729000000       6.526635000000      16.561958000000
234    2       16.316288000000       4.958782000000      14.431396000000
235    2       10.279064000000       7.303148000000      14.359924000000
236    2       13.189468000000       3.446081000000      18.776775000000
237    2       11.174998000000       4.496681000000      20.278364000000
238    2       13.809902000000       4.676540000000      21.048458000000
239    2       12.326947000000       2.394556000000      21.213306000000
240    2       14.379193000000       1.517848000000      22.640779000000
241    2       12.183323000000       0.212625000000      22.880388000000
242    2       15.212020000000       6.868382000000      21.614021000000
243    2       14.496939000000       6.200261000000      19.026138000000
244    2       17.479708000000       3.629147000000      18.225916000000
245    2       19.012693000000       4.791235000000      20.156099000000
246    2       16.512602000000       4.942311000000      20.407825000000
247    2       17.733826000000       2.558344000000      20.713514000000
248    2       19.628525000000       1.582049000000      22.278151000000
249    2       16.957785000000       0.952821000000      17.646093000000
250    2        9.701603000000       6.119025000000      21.999660000000
251    2       17.030863000000       1.289559000000      23.105371000000
252    2       14.131254000000       1.378517000000      17.147396000000
253    2       16.313885000000       8.183919000000      18.766285000000
254    2       16.562357000000       8.285171000000      12.309812000000
255    2       10.233056000000      13.692132000000      17.147419000000
256    2       19.166391000000       8.596096000000      11.807691000000
257    2       18.774151000000       7.488659000000      18.223186000000
258    2       14.240176000000       9.417179000000      12.705581000000
259    2       11.853517000000       8.377202000000      12.256696000000
260    2       12.847502000000      10.725080000000      16.770533000000
261    2       12.093985000000      10.148479000000      14.194766000000
262    2       14.214942000000      11.774862000000      14.815397000000
263    2       11.767655000000      12.686707000000      15.177334000000
264    2       15.735109000000      13.869201000000      14.215008000000
265    2        9.923235000000       0.271419000000      14.505139000000
266    2       17.518398000000       9.496183000000      16.775297000000
267    2       15.394286000000      13.306879000000      16.828512000000
268    2       16.853310000000      11.692320000000      15.255972000000
269    2       18.242546000000       9.401758000000      14.152452000000
270    2       19.300228000000      11.242224000000      15.818615000000
271    2       11.414933000000       8.760173000000      17.770521000000
272    2       13.410770000000       9.963892000000      19.345135000000
273    2       11.172194000000      11.427944000000      20.152874000000
274    2       13.594507000000      12.378727000000      20.198826000000
275    2       13.001437000000      10.339937000000      21.936609000000
276    2       14.238598000000       8.637902000000      23.551285000000
277    2       10.050718000000      12.832492000000      22.287346000000
278    2       11.743713000000       8.116138000000      22.606121000000
279    2       10.334779000000      13.988239000000      19.794865000000
280    2       14.958062000000       0.128667000000      19.269550000000
281    2       15.532430000000      13.565859000000      21.775909000000
282    2       18.156672000000       9.925848000000      19.362923000000
283    2       18.776028000000      12.664717000000      19.640230000000
284    2       16.227062000000      12.000289000000      19.624903000000
285    2       17.820587000000      11.301215000000      21.676489000000
286    2       19.140057000000       8.957873000000      22.373116000000
287    2       16.428944000000       9.074282000000      22.054804000000
288    2       13.986191000000       8.228797000000      17.265984000000
289    3       15.692944000000      12.306396000000      26.832451000000
290    3       14.571843000000      11.350589000000      26.310984000000
291    2       14.796355000000      12.337199000000      26.333881000000
292    3       19.044868000000      13.796078000000      27.701324000000
293    3        0.047789000000      13.173443000000      28.446735000000
294    2       19.404196000000      13.501860000000      28.567432000000
295    3       16.246729000000       6.589890000000      29.939100000000
296    3       16.982445000000       7.806203000000      29.140158000000
297    2       16.605974000000       7.538245000000      30.014853000000
298    3       12.541224000000      11.723614000000       3.174237000000
299    3       11.674087000000      11.471212000000       4.257254000000
300    2       11.644740000000      11.246157000000       3.281938000000
301    3        0.867313000000       2.749719000000      32.169937000000
302    3       19.943907000000       3.613705000000      32.771839000000
303    2        0.537827000000       3.198833000000      33.027981000000
304    3        5.674595000000      11.080994000000      28.846046000000
305    3        6.139322000000      10.668397000000      30.300884000000
306    2        6.361705000000      10.509037000000      29.346731000000
307    3       19.293020000000      14.012106000000      34.575146000000
308    3       17.689383000000      14.140989000000      34.332684000000
309    2       18.415081000000      13.561925000000      34.779640000000
310    3        0.971113000000       0.284649000000      33.487259000000
311    3        0.289526000000       1.523999000000      34.029007000000
312    2        0.557291000000       0.634279000000      34.312805000000
313    3       11.637989000000       6.430403000000      33.819920000000
314    3       10.407167000000       7.245090000000      34.456795000000
315    2       10.987873000000       6.466199000000      34.602867000000
316    3        2.791124000000      12.541002000000       8.058233000000
317    3        4.097857000000      12.511357000000       8.899961000000
318    2        3.623725000000      11.947282000000       8.208529000000
319    3        7.166776000000       8.523527000000       1.595671000000
320    3        5.713057000000       8.301422000000       2.258570000000
321    2        6.168512000000       8.313607000000       1.344094000000
322    3        6.485832000000       9.212384000000       6.526336000000
323    3        4.832765000000       8.578296000000       6.680342000000
324    2        5.830450000000       8.429420000000       6.284450000000
325    3       11.754123000000       8.640088000000       1.566625000000
326    3       11.259066000000       9.315853000000       2.980108000000
327    2       11.119120000000       8.565198000000       2.393518000000
328    3       13.634364000000       6.050181000000      27.546764000000
329    3       14.742723000000       5.024962000000      26.943832000000
330    2       14.564878000000       5.706710000000      27.604723000000
331    3       19.755960000000      11.909122000000       3.658543000000
332    3       18.904457000000      10.723248000000       3.280329000000
333    2       19.434181000000      11.459335000000       2.850082000000
334    3        0.555353000000      10.753860000000       1.933344000000
335    3        1.493483000000      11.675230000000       1.151511000000
336    2        1.309100000000      10.697227000000       1.312925000000
337    3       10.911434000000       3.714255000000      27.005081000000
338    3       11.450628000000       3.104399000000      28.409842000000
339    2       11.577322000000       3.835342000000      27.713160000000
340    3       18.231001000000      12.975346000000      30.005417000000
341    3       17.058075000000      13.785766000000      30.628651000000
342    2       17.419861000000      12.830869000000      30.570686000000
343    3        2.294409000000       6.241951000000      32.933586000000
344    3        1.816087000000       6.809896000000      31.492424000000
345    2        2.414340000000       7.023897000000      32.299889000000
346    3        7.085261000000       3.160582000000       6.021967000000
347    3        6.047551000000       3.742141000000       5.058840000000
348    2        6.941882000000       3.938705000000       5.345028000000
349    3       16.088558000000      14.319732000000       8.542904000000
350    3       14.993819000000      13.250405000000       8.055209000000
351    2       15.236619000000      13.811744000000       8.821513000000
352    3        3.082033000000       8.820611000000       8.171514000000
353    3        3.599619000000      10.315400000000       8.276439000000
354    2        3.479152000000       9.565233000000       7.620800000000
355    3        0.938096000000      10.926714000000       5.356224000000
356    3        1.569250000000      12.035148000000       4.496304000000
357    2        0.733967000000      11.910522000000       5.004164000000
358    3        5.423068000000       2.367686000000      27.572174000000
359    3        5.358720000000       3.585442000000      26.602066000000
360    2        5.636508000000       3.323177000000      27.583845000000
361    3       19.281631000000       4.823437000000      27.885069000000
362    3       20.091652000000       5.609597000000      29.119566000000
363    2       19.830212000000       5.620448000000      28.151575000000
364    3       19.716812000000       5.161907000000       7.737616000000
365    3       19.489756000000       3.627379000000       7.353108000000
366    2       20.062555000000       4.237923000000       7.968308000000
367    3       15.052871000000       5.133854000000      29.146082000000
368    3       16.177509000000       4.329222000000      30.107647000000
369    2       15.542583000000       5.147760000000      29.981121000000
370    3       14.640519000000      11.472428000000       6.294978000000
371    3       13.950892000000      12.862195000000       6.144890000000
372    2       14.843993000000      12.463574000000       6.422312000000
373    3        4.589879000000       0.290777000000      34.036308000000
374    3        4.187086000000      13.174500000000      34.597523000000
375    2        3.979746000000      13.867093000000      33.951443000000
376    3       13.924448000000      13.580442000000      29.893791000000
377    3       13.029039000000       0.481460000000      29.662922000000
378    2       13.963970000000       0.180293000000      29.599825000000
379    3       17.355022000000       6.158998000000       6.308493000000
380    3       16.181837000000       5.067936000000       6.226824000000
381    2       16.365442000000       6.062883000000       6.008785000000
382    3       18.491415000000      11.918109000000      33.466774000000
383    3       18.041071000000      12.053694000000      32.021862000000
384    2       18.090990000000      11.360600000000      32.797401000000
385    3       16.716492000000       4.159155000000      34.853340000000
386    3       16.417391000000       5.714088000000      34.700687000000
387    2       16.647980000000       4.868003000000      34.167202000000
388    3       16.148569000000      11.540581000000       1.424664000000
389    3       15.023538000000      11.790007000000       2.425824000000
390    2       15.277800000000      11.081054000000       1.780319000000
391    3        5.359893000000      10.968762000000      32.643059000000
392    3        4.811010000000       9.550641000000      32.146160000000
393    2        4.955736000000      10.520117000000      31.823139000000
394    3       11.631072000000      13.430063000000       8.899028000000
395    3       12.528779000000      12.185525000000       9.378312000000
396    2       11.811735000000      12.482765000000       8.813269000000
397    3        2.299966000000       5.570072000000       6.370029000000
398    3        1.583926000000       4.690932000000       7.307570000000
399    2        2.446850000000       5.217705000000       7.296679000000
400    3       17.431383000000       9.221202000000       4.126481000000
401    3       18.572651000000       9.195319000000       5.367100000000
402    2       18.431131000000       9.168354000000       4.333443000000
403    3       14.560018000000      11.564137000000      34.326294000000
404    3       14.029777000000      11.590725000000       0.087615000000
405    2       13.816804000000      11.947881000000      34.912376000000
406    3       19.939178000000       6.361666000000       0.135771000000
407    3        1.038007000000       7.303089000000       0.284138000000