# File generated with Atomsk by j281j388 on 2026-06-01 13:00:06

864  atoms
3  atom types

0.000000000000      20.251000000000  xlo xhi
0.000000000000      14.320000000000  ylo yhi
0.000000000000      35.707675000000  zlo zhi

Masses

1   28.08500000             # Si
2   15.99900000             # O
3   1.00800000              # H

Atoms # atomic

1    1        2.389818000000       1.944703000000      12.739380000000
2    2        2.268595000000       3.248954000000      11.806098000000
3    3        1.417234000000       3.457377000000      11.319791000000
4    1       10.369707000000       7.806424000000      12.693834000000
5    2       10.068181000000       6.579250000000      11.643209000000
6    3       10.886367000000       5.965584000000      11.352824000000
7    1        0.152263000000       7.428014000000      12.146029000000
8    2        0.383951000000       6.437383000000      10.849714000000
9    3        1.178280000000       6.591030000000      10.210815000000
10    1        5.355757000000       7.691825000000      12.662264000000
11    2        4.624086000000       7.020824000000      11.349084000000
12    3        5.343721000000       6.531385000000      10.856302000000
13    1        7.661438000000       2.059540000000      12.646694000000
14    2        7.541121000000       2.911674000000      11.220880000000
15    3        6.637356000000       3.037614000000      10.903333000000
16    1       19.996616000000      14.302428000000      12.846147000000
17    2       20.224066000000      13.204372000000      11.550694000000
18    3        0.046890000000      12.274758000000      11.936839000000
19    1       20.228659000000       7.682682000000      22.403587000000
20    2       19.650837000000       6.515287000000      23.450504000000
21    3       18.666735000000       6.710838000000      23.638283000000
22    1        4.913773000000       7.489209000000      22.832914000000
23    2        4.658107000000       6.473644000000      24.154219000000
24    3        4.297565000000       6.975328000000      24.952045000000
25    1        3.066728000000       1.896358000000      22.868296000000
26    2        2.599722000000       3.080403000000      24.055235000000
27    3        2.236106000000       2.596930000000      24.867170000000
28    1        8.220755000000       1.862429000000      22.790915000000
29    2        8.002007000000       2.648429000000      24.237869000000
30    3        7.151467000000       3.196131000000      24.290829000000
31    1        2.782680000000       9.254736000000      12.640084000000
32    2        3.004865000000       9.973856000000      11.088309000000
33    3        3.196630000000      10.914964000000      11.057897000000
34    1        7.808778000000       9.677756000000      12.788347000000
35    2        7.709767000000      10.981406000000      11.803275000000
36    3        7.361537000000      11.792054000000      12.238264000000
37    1        5.015994000000       0.240617000000      12.922416000000
38    2        5.539520000000      13.248517000000      12.083753000000
39    3        5.430402000000      13.300987000000      11.079756000000
40    1        5.637146000000      14.291842000000      23.302891000000
41    2        5.832428000000      13.526389000000      24.809273000000
42    3        6.505335000000      14.041748000000      25.322664000000
43    1        2.490656000000       9.539018000000      22.884851000000
44    2        2.437168000000      10.753379000000      23.948811000000
45    3        3.345527000000      10.884322000000      24.361654000000
46    1        0.360634000000       0.272788000000      22.659193000000
47    2       19.977354000000      14.122741000000      24.153149000000
48    3       20.128475000000      13.173232000000      24.323050000000
49    1        7.664771000000       8.967088000000      23.180597000000
50    2        7.184929000000       9.579102000000      24.638987000000
51    3        7.995746000000      10.033340000000      25.097832000000
52    1       10.598122000000      14.205990000000      23.222864000000
53    2       10.462896000000      13.468862000000      24.772650000000
54    3       10.984452000000      13.872276000000      25.549040000000
55    1       12.814925000000       1.924588000000      12.712016000000
56    2       13.206873000000       2.882493000000      11.339033000000
57    3       13.454011000000       2.327830000000      10.487202000000
58    1       14.946834000000       7.888693000000      12.541390000000
59    2       14.674161000000       6.854853000000      11.316195000000
60    3       13.700916000000       6.557971000000      11.161140000000
61    1       17.760996000000       2.072561000000      12.432922000000
62    2       18.011824000000       2.453931000000      10.789220000000
63    3       18.944239000000       2.736586000000      10.494958000000
64    1       10.368268000000       7.239555000000      23.097416000000
65    2       10.590632000000       6.362625000000      24.417828000000
66    3       11.226788000000       6.270813000000      25.260403000000
67    1       12.875514000000       1.796776000000      22.578564000000
68    2       12.551948000000       2.758053000000      23.951170000000
69    3       11.678864000000       3.179566000000      23.937098000000
70    1       18.206209000000       2.213806000000      22.280146000000
71    2       18.120417000000       3.531781000000      23.378553000000
72    3       18.585300000000       4.418504000000      23.281448000000
73    1       15.603747000000       7.825264000000      22.898214000000
74    2       16.614248000000       7.122779000000      23.961323000000
75    3       16.406982000000       7.236899000000      24.936842000000
76    1       12.731504000000       9.785629000000      12.633484000000
77    2       12.317799000000      10.919671000000      11.564663000000
78    3       11.459466000000      10.659702000000      11.004539000000
79    1       17.844084000000       9.322324000000      12.569876000000
80    2       17.648424000000      10.776922000000      11.827563000000
81    3       16.942331000000      11.423597000000      11.971754000000
82    1       15.375854000000       0.217742000000      12.813450000000
83    2       15.882633000000      13.447519000000      11.635995000000
84    3       15.484511000000      13.552430000000      10.776361000000
85    1       10.233837000000       0.433930000000      12.824006000000
86    2       10.950059000000      13.489073000000      12.087787000000
87    3       11.831428000000      13.103572000000      12.229018000000
88    1       15.608848000000       0.407826000000      22.924095000000
89    2       15.254387000000      14.239709000000      24.439840000000
90    3       15.260483000000      13.369013000000      24.832209000000
91    1       12.757776000000       9.229640000000      23.084770000000
92    2       12.246687000000       9.679740000000      24.661827000000
93    3       11.254420000000       9.978514000000      24.754721000000
94    1       17.727785000000       9.892197000000      22.629427000000
95    2       17.928843000000      10.320866000000      24.162922000000
96    3       17.279438000000      11.017101000000      24.352262000000
97    1       20.147148000000       5.809975000000      14.858772000000
98    1        2.697049000000       2.214361000000      17.684404000000
99    1        5.331619000000       5.467111000000      14.952005000000
100    1        2.613580000000       3.970038000000      15.112325000000
101    1        7.897439000000       3.765698000000      15.218855000000
102    1        0.207040000000       0.630705000000      17.499865000000
103    1        2.623323000000       3.661586000000      20.317774000000
104    1        0.314833000000       5.614501000000      20.028511000000
105    1        4.950367000000       5.583489000000      20.362902000000
106    1        7.373494000000       3.856930000000      20.412569000000
107    1        7.638402000000       2.016819000000      17.909130000000
108    1        5.044911000000      12.856649000000      15.522366000000
109    1        7.730546000000      11.176238000000      15.503571000000
110    1        0.048825000000      12.447362000000      15.593296000000
111    1        2.636933000000      10.840608000000      15.189129000000
112    1        7.551545000000       9.156848000000      17.833878000000
113    1        5.188519000000       0.238978000000      18.124340000000
114    1        0.060063000000       7.198349000000      17.583075000000
115    1        2.349199000000      11.144937000000      20.053534000000
116    1       20.212696000000      13.230274000000      19.913383000000
117    1        5.047301000000      12.684946000000      20.640661000000
118    1        7.408974000000      10.676968000000      20.538404000000
119    1        2.587896000000       9.069236000000      17.720020000000
120    1        5.302302000000       7.140094000000      17.722494000000
121    1       10.345175000000       5.890403000000      15.226404000000
122    1       15.146836000000       7.255446000000      17.901312000000
123    1       15.175299000000       5.943582000000      15.091082000000
124    1       17.634798000000       4.054626000000      14.776197000000
125    1       12.720980000000       4.019350000000      15.064593000000
126    1       12.618825000000       3.749348000000      20.315941000000
127    1       14.968895000000       5.628135000000      20.573959000000
128    1       17.678619000000       3.976136000000      19.857637000000
129    1       17.833042000000       2.300138000000      17.229277000000
130    1        9.980310000000       5.659558000000      20.404131000000
131    1       12.892382000000       2.237538000000      17.571949000000
132    1       15.370764000000       0.441063000000      17.704006000000
133    1       10.207574000000      13.240755000000      15.534259000000
134    1       12.702920000000      11.331890000000      15.254174000000
135    1       17.718693000000       8.754873000000      18.301077000000
136    1       17.922798000000      10.430646000000      15.524875000000
137    1       15.547927000000      12.653368000000      15.329196000000
138    1       10.216984000000       7.461565000000      17.940281000000
139    1       12.924048000000       9.275040000000      17.873974000000
140    1       12.714023000000      10.993580000000      20.392008000000
141    1        9.959332000000      12.538227000000      20.552931000000
142    1       15.051281000000      13.034429000000      20.234221000000
143    1       17.696234000000      11.514333000000      19.977037000000
144    1       10.419610000000       0.361343000000      18.384418000000
145    2        7.905971000000       2.882400000000      16.575695000000
146    2        8.316513000000       2.814883000000      13.951039000000
147    2        6.119738000000       1.548811000000      13.013991000000
148    2        1.738984000000       1.034415000000      17.028036000000
149    2        8.949074000000       4.987694000000      15.214108000000
150    2        0.119766000000       6.964384000000      16.020174000000
151    2        6.352663000000       4.187122000000      14.859518000000
152    2        0.922150000000       1.152421000000      12.732038000000
153    2        3.573684000000       0.951884000000      12.283350000000
154    2        2.691345000000       2.539756000000      14.280526000000
155    2        3.869120000000       4.834776000000      14.457776000000
156    2        2.779869000000       3.542993000000      16.742907000000
157    2        1.274174000000       4.886840000000      14.854642000000
158    2        5.115648000000       6.169878000000      16.373377000000
159    2        5.762695000000       6.424226000000      13.658458000000
160    2        8.772315000000       0.853567000000      12.221498000000
161    2        4.137621000000       1.525304000000      18.153685000000
162    2       19.967417000000       6.439790000000      13.392446000000
163    2        2.013564000000       2.806444000000      19.073856000000
164    2        1.402661000000       4.720024000000      20.832943000000
165    2        3.830036000000       4.577121000000      19.759346000000
166    2        3.303311000000       2.717726000000      21.440531000000
167    2        0.262722000000       7.024484000000      20.913225000000
168    2        4.560142000000       1.195287000000      23.294617000000
169    2        1.947585000000       0.737665000000      22.634476000000
170    2        4.367736000000       6.816265000000      21.336042000000
171    2        5.725166000000       6.245404000000      19.021261000000
172    2        6.908259000000       2.934505000000      19.202282000000
173    2        8.503310000000       4.970521000000      19.929596000000
174    2        6.135056000000       4.644769000000      21.161736000000
175    2        7.967753000000       2.860022000000      21.563702000000
176    2        7.174954000000       0.585170000000      22.877953000000
177    2        0.586750000000       5.944965000000      18.391081000000
178    2        9.753758000000       1.236040000000      22.975355000000
179    2        9.110971000000       1.511734000000      18.441229000000
180    2       10.250271000000       7.011445000000      19.479832000000
181    2        6.614239000000       0.792344000000      17.444702000000
182    2        7.711653000000      10.001922000000      14.373519000000
183    2       19.952042000000      13.611875000000      16.804827000000
184    2        4.749345000000      13.309407000000      17.143772000000
185    2       20.203190000000      13.268712000000      14.178716000000
186    2        4.221646000000       8.716975000000      13.341099000000
187    2        1.644718000000       8.056973000000      12.446601000000
188    2        1.614947000000      11.936585000000      15.746555000000
189    2        2.109636000000      10.480587000000      13.623490000000
190    2        4.144022000000      11.591655000000      15.048763000000
191    2        2.807320000000       9.453069000000      16.082083000000
192    2        8.738031000000       8.014651000000      17.348696000000
193    2        7.553597000000      10.516653000000      16.961752000000
194    2        6.578500000000      12.309837000000      15.369320000000
195    2        4.772500000000      14.134822000000      14.543309000000
196    2        9.280245000000      11.886683000000      15.436811000000
197    2        6.731235000000       8.510008000000      12.322542000000
198    2        9.319510000000       9.081065000000      12.473088000000
199    2        1.011993000000       8.562542000000      18.025978000000
200    2        2.999698000000      10.290654000000      18.726566000000
201    2        0.889167000000      11.862219000000      19.581099000000
202    2        3.439940000000      12.279188000000      20.537340000000
203    2        2.163083000000      10.105166000000      21.320854000000
204    2        0.259732000000       0.284673000000      19.123594000000
205    2        5.102160000000      13.152822000000      22.232599000000
206    2        5.572893000000      14.009552000000      19.667147000000
207    2        7.616434000000       9.378371000000      19.431290000000
208    2        8.447993000000      11.903436000000      20.146061000000
209    2        5.914147000000      11.273005000000      20.276567000000
210    2        7.729677000000      10.246414000000      22.126104000000
211    2        6.555707000000       7.850257000000      22.693144000000
212    2        4.017380000000       8.843796000000      23.041780000000
213    2        3.679688000000       7.770730000000      17.984388000000
214    2        1.221084000000       8.511630000000      23.202072000000
215    2        6.114121000000       8.510427000000      17.429100000000
216    2        9.211908000000       8.389527000000      23.345659000000
217    2        0.170835000000      13.408247000000      21.524685000000
218    2       11.825026000000       1.201869000000      18.381605000000
219    2       18.550159000000       0.702104000000      12.898446000000
220    2       18.760696000000       5.052566000000      15.413347000000
221    2       19.439514000000       1.956494000000      17.284861000000
222    2       18.109491000000       3.433414000000      13.292516000000
223    2       17.415697000000       2.674646000000      15.741580000000
224    2       11.206906000000       1.757094000000      12.850672000000
225    2       13.699009000000       0.545960000000      12.781696000000
226    2       10.860787000000       6.335194000000      16.794483000000
227    2       13.271571000000       2.997390000000      13.902965000000
228    2       12.260319000000       3.028085000000      16.298269000000
229    2       13.872154000000       5.104731000000      15.596481000000
230    2       11.444131000000       4.900545000000      14.524478000000
231    2       16.159811000000       1.635678000000      12.583762000000
232    2       14.755472000000       7.221131000000      14.062888000000
233    2       15.817407000000       6.557788000000      16.548151000000
234    2       16.251488000000       4.903964000000      14.460074000000
235    2       10.233926000000       7.203637000000      14.247297000000
236    2       13.163153000000       3.442456000000      18.791025000000
237    2       11.271596000000       4.674413000000      20.203104000000
238    2       13.768483000000       4.722456000000      21.101063000000
239    2       12.259676000000       2.428998000000      21.235558000000
240    2       14.468451000000       1.550137000000      22.554312000000
241    2       12.151547000000       0.289172000000      22.801573000000
242    2       15.168911000000       6.796058000000      21.709717000000
243    2       14.405071000000       6.258563000000      19.048956000000
244    2       17.560530000000       3.602282000000      18.285326000000
245    2       19.013519000000       4.920425000000      20.089674000000
246    2       16.419758000000       4.867250000000      20.357269000000
247    2       17.783464000000       2.557001000000      20.741125000000
248    2       19.693224000000       1.569801000000      22.328697000000
249    2       16.942770000000       0.984798000000      17.701277000000
250    2        9.803762000000       6.168088000000      21.958561000000
251    2       17.043488000000       1.239948000000      22.967239000000
252    2       14.254620000000       1.479544000000      17.089003000000
253    2       16.217287000000       8.256834000000      18.719486000000
254    2       16.576580000000       8.329868000000      12.364597000000
255    2       10.224586000000      13.576519000000      17.158751000000
256    2       19.136921000000       8.542133000000      11.928023000000
257    2       18.758078000000       7.458735000000      18.104679000000
258    2       14.259768000000       9.349662000000      12.681743000000
259    2       11.883664000000       8.352403000000      12.358341000000
260    2       12.689488000000      10.697895000000      16.796127000000
261    2       12.280925000000      10.121338000000      14.195302000000
262    2       14.232983000000      11.749142000000      14.795259000000
263    2       11.868134000000      12.750921000000      15.178584000000
264    2       15.825970000000      13.886064000000      14.270242000000
265    2        9.897961000000       0.192680000000      14.496957000000
266    2       17.564589000000       9.521975000000      16.814741000000
267    2       15.405699000000      13.283915000000      16.869930000000
268    2       16.807892000000      11.621589000000      15.229819000000
269    2       18.142561000000       9.388117000000      14.157594000000
270    2       19.359962000000      11.160545000000      15.987348000000
271    2       11.293457000000       8.836420000000      17.630138000000
272    2       13.331230000000       9.870420000000      19.300449000000
273    2       11.113284000000      11.389533000000      20.159040000000
274    2       13.537194000000      12.356105000000      20.192839000000
275    2       12.972628000000      10.377216000000      21.904600000000
276    2       14.188807000000       8.443799000000      23.554003000000
277    2       10.040028000000      12.960584000000      22.249298000000
278    2       11.756178000000       8.115031000000      22.548864000000
279    2       10.265307000000      14.087719000000      19.912102000000
280    2       14.981589000000       0.073924000000      19.272758000000
281    2       15.623087000000      13.468866000000      21.789106000000
282    2       18.197432000000       9.949607000000      19.362957000000
283    2       18.636150000000      12.851498000000      19.581959000000
284    2       16.093349000000      11.899139000000      19.562065000000
285    2       17.806711000000      11.237609000000      21.599155000000
286    2       19.114336000000       8.905986000000      22.298611000000
287    2       16.395023000000       9.126216000000      22.199041000000
288    2       13.946392000000       8.178535000000      17.219772000000
289    3       15.524277000000      12.078552000000      26.773640000000
290    3       14.413795000000      11.141386000000      26.076605000000
291    2       14.685316000000      12.112673000000      26.243126000000
292    3       19.163553000000      13.777325000000      27.938492000000
293    3        0.163616000000      13.118481000000      28.729902000000
294    2       19.515509000000      13.522397000000      28.798845000000
295    3       16.196098000000       6.709562000000      29.957800000000
296    3       16.925640000000       8.019551000000      29.177391000000
297    2       16.614368000000       7.617442000000      30.025648000000
298    3       12.507793000000      11.791599000000       3.409326000000
299    3       11.512948000000      11.207559000000       4.268560000000
300    2       11.782440000000      11.069310000000       3.328869000000
301    3        0.890868000000       2.831454000000      32.408833000000
302    3       19.909370000000       3.566502000000      32.854038000000
303    2        0.447928000000       3.131282000000      33.247135000000
304    3        5.494611000000      10.965315000000      28.976835000000
305    3        6.105495000000      10.791889000000      30.442837000000
306    2        6.209418000000      10.478125000000      29.490694000000
307    3       19.365431000000      14.021612000000      34.569550000000
308    3       17.727423000000      14.222610000000      34.303818000000
309    2       18.459740000000      13.680000000000      34.823147000000
310    3        1.201215000000       0.304211000000      33.811066000000
311    3        0.248063000000       1.399404000000      34.207973000000
312    2        0.559313000000       0.541244000000      34.517464000000
313    3       11.527341000000       6.464604000000      33.831509000000
314    3       10.305128000000       7.355197000000      34.432995000000
315    2       10.912872000000       6.562679000000      34.630730000000
316    3        2.679385000000      12.614697000000       7.891519000000
317    3        3.895084000000      12.556807000000       8.848584000000
318    2        3.508448000000      12.060427000000       8.088173000000
319    3        7.185377000000       8.230385000000       1.733355000000
320    3        5.649372000000       8.115032000000       2.243340000000
321    2        6.206407000000       8.124882000000       1.380304000000
322    3        6.727432000000       9.028696000000       6.484923000000
323    3        5.031807000000       8.550617000000       6.834019000000
324    2        5.987585000000       8.309690000000       6.382929000000
325    3       11.655175000000       8.581979000000       1.500811000000
326    3       11.066704000000       9.165685000000       2.917902000000
327    2       10.908539000000       8.472803000000       2.263140000000
328    3       13.679399000000       5.877671000000      27.771482000000
329    3       14.637486000000       4.924487000000      26.854729000000
330    2       14.584580000000       5.518163000000      27.594101000000
331    3       19.737061000000      11.772253000000       3.498237000000
332    3       18.918941000000      10.506959000000       3.299512000000
333    2       19.342140000000      11.248281000000       2.762125000000
334    3        0.325569000000      10.903015000000       1.773932000000
335    3        1.584446000000      11.541861000000       1.021620000000
336    2        1.168918000000      10.678715000000       1.291631000000
337    3       10.762323000000       3.287627000000      27.156263000000
338    3       11.781495000000       3.034298000000      28.415520000000
339    2       11.624224000000       3.536852000000      27.559280000000
340    3       18.310593000000      13.238998000000      30.072397000000
341    3       17.022190000000      13.838221000000      30.694551000000
342    2       17.463770000000      12.940227000000      30.515051000000
343    3        2.446173000000       6.193922000000      32.879875000000
344    3        1.730591000000       6.919909000000      31.607267000000
345    2        2.411827000000       7.072215000000      32.381657000000
346    3        6.987248000000       3.142008000000       6.225356000000
347    3        5.896988000000       3.611057000000       5.111110000000
348    2        6.867351000000       3.872276000000       5.480934000000
349    3       15.969674000000       0.009747000000       8.742338000000
350    3       15.181396000000      13.288010000000       7.964063000000
351    2       15.242303000000      13.703678000000       8.853167000000
352    3        2.993459000000       8.896408000000       8.102590000000
353    3        3.512948000000      10.428280000000       8.154709000000
354    2        3.437799000000       9.621383000000       7.520683000000
355    3        1.186188000000      11.050307000000       5.173249000000
356    3        1.549207000000      12.259089000000       4.217836000000
357    2        0.770635000000      11.928140000000       4.795983000000
358    3        5.429099000000       2.380180000000      27.547894000000
359    3        5.256674000000       3.544908000000      26.560413000000
360    2        5.554734000000       3.360599000000      27.556707000000
361    3       19.549747000000       4.773144000000      27.989059000000
362    3        0.015675000000       6.067914000000      28.675480000000
363    2       19.816122000000       5.699356000000      27.913872000000
364    3       19.526999000000       4.962448000000       7.606637000000
365    3       19.779663000000       3.459741000000       7.320185000000
366    2       20.177649000000       4.223797000000       7.862041000000
367    3       15.056363000000       5.076636000000      29.127920000000
368    3       16.259367000000       4.429359000000      30.061886000000
369    2       15.564158000000       5.167318000000      29.968008000000
370    3       14.651020000000      11.566123000000       6.113987000000
371    3       13.683422000000      12.762805000000       6.252780000000
372    2       14.672778000000      12.556946000000       6.328245000000
373    3        4.564857000000       0.336792000000      34.131725000000
374    3        4.511390000000      13.065090000000      34.296799000000
375    2        4.025536000000      13.871062000000      33.983273000000
376    3       14.022242000000      13.620073000000      29.825954000000
377    3       13.031512000000       0.436470000000      29.730791000000
378    2       13.978984000000       0.264168000000      29.568483000000
379    3       17.108921000000       6.520503000000       6.265692000000
380    3       16.293669000000       5.162512000000       6.450153000000
381    2       16.176222000000       6.134741000000       6.110452000000
382    3       18.263784000000      12.088111000000      33.604065000000
383    3       18.021826000000      12.011606000000      32.088814000000
384    2       18.134384000000      11.398301000000      32.931889000000
385    3       16.676352000000       4.094905000000      34.872204000000
386    3       16.492432000000       5.650430000000      34.848869000000
387    2       16.502836000000       4.857948000000      34.237049000000
388    3       16.174253000000      11.623488000000       1.482242000000
389    3       15.027346000000      11.802883000000       2.449358000000
390    2       15.300963000000      11.135117000000       1.779933000000
391    3        5.197908000000      11.111277000000      32.687389000000
392    3        4.940618000000       9.647106000000      32.035004000000
393    2        4.981274000000      10.648192000000      31.845179000000
394    3       11.219345000000      13.185308000000       8.836761000000
395    3       12.695408000000      12.806276000000       8.960338000000
396    2       11.835548000000      12.447103000000       8.774848000000
397    3        2.467266000000       5.481445000000       6.322568000000
398    3        1.478673000000       4.924822000000       7.322803000000
399    2        2.465416000000       5.185704000000       7.303574000000
400    3       17.366999000000       9.316021000000       4.019447000000
401    3       18.523127000000       9.306780000000       5.214983000000
402    2       18.383478000000       9.188487000000       4.223298000000
403    3       14.533346000000      11.548012000000      34.253632000000
404    3       13.938045000000      11.477744000000       0.005755000000
405    2       13.738764000000      11.861622000000      34.822506000000
406    3        0.165559000000       5.794836000000      35.606533000000
407    3        0.974971000000       7.121830000000       0.216085000000