# File generated with Atomsk by j281j388 on 2026-06-01 12:59:58

864  atoms
3  atom types

0.000000000000      20.251000000000  xlo xhi
0.000000000000      14.320000000000  ylo yhi
0.000000000000      35.707675000000  zlo zhi

Masses

1   28.08500000             # Si
2   15.99900000             # O
3   1.00800000              # H

Atoms # atomic

1    1        2.459017000000       1.910100000000      12.702618000000
2    2        2.391757000000       3.109055000000      11.629024000000
3    3        1.508367000000       3.386833000000      11.262370000000
4    1       10.406400000000       7.680392000000      12.707376000000
5    2       10.036532000000       6.451344000000      11.676177000000
6    3       10.792525000000       5.933971000000      11.268107000000
7    1        0.160577000000       7.453809000000      12.030252000000
8    2        0.311854000000       6.444544000000      10.729662000000
9    3        0.964280000000       6.649282000000      10.001466000000
10    1        5.415800000000       7.708156000000      12.627640000000
11    2        4.615809000000       6.987433000000      11.388741000000
12    3        5.318524000000       6.670176000000      10.717450000000
13    1        7.668203000000       1.992131000000      12.527451000000
14    2        7.473657000000       3.049432000000      11.263970000000
15    3        6.458978000000       3.161665000000      10.938699000000
16    1       20.090694000000      14.305650000000      12.827398000000
17    2        0.011870000000      13.243961000000      11.512532000000
18    3       20.175423000000      12.369019000000      11.910548000000
19    1       20.188162000000       7.580262000000      22.402349000000
20    2       19.617418000000       6.436457000000      23.477270000000
21    3       18.673464000000       6.658605000000      23.693249000000
22    1        4.846294000000       7.516778000000      22.852709000000
23    2        4.678762000000       6.480808000000      24.160879000000
24    3        4.465942000000       6.990562000000      25.007969000000
25    1        3.087018000000       1.874189000000      22.763363000000
26    2        2.713675000000       2.968341000000      24.061228000000
27    3        2.407122000000       2.630724000000      24.923449000000
28    1        8.215344000000       1.777858000000      22.866518000000
29    2        7.933484000000       2.765711000000      24.175766000000
30    3        7.006921000000       3.181097000000      24.292927000000
31    1        2.772441000000       9.222990000000      12.670691000000
32    2        3.041713000000      10.054066000000      11.153519000000
33    3        3.404381000000      10.984703000000      11.175512000000
34    1        7.898894000000       9.741151000000      12.774002000000
35    2        7.731055000000      11.059576000000      11.820035000000
36    3        7.008502000000      11.698080000000      12.110513000000
37    1        5.023675000000       0.208520000000      12.931874000000
38    2        5.531743000000      13.205362000000      12.064347000000
39    3        5.343363000000      13.235424000000      11.102311000000
40    1        5.672268000000      14.236029000000      23.260447000000
41    2        5.833760000000      13.510454000000      24.761274000000
42    3        6.392135000000      14.043119000000      25.384741000000
43    1        2.384570000000       9.532052000000      22.896461000000
44    2        2.409262000000      10.774872000000      23.917740000000
45    3        3.284554000000      10.786401000000      24.355999000000
46    1        0.354147000000       0.293987000000      22.711843000000
47    2       20.016335000000      14.068149000000      24.189487000000
48    3       20.171675000000      13.114348000000      24.426483000000
49    1        7.633202000000       8.982633000000      23.103022000000
50    2        7.182752000000       9.588849000000      24.593878000000
51    3        8.031342000000       9.929806000000      25.078098000000
52    1       10.625637000000      14.165704000000      23.180351000000
53    2       10.409611000000      13.555024000000      24.761669000000
54    3       11.024467000000      13.963286000000      25.487335000000
55    1       12.840637000000       1.962976000000      12.679097000000
56    2       13.317850000000       2.908169000000      11.333488000000
57    3       13.521206000000       2.249704000000      10.528818000000
58    1       14.948220000000       7.850917000000      12.562362000000
59    2       14.546676000000       6.860540000000      11.325983000000
60    3       13.640010000000       6.374396000000      11.467416000000
61    1       17.757969000000       2.057780000000      12.420248000000
62    2       18.006269000000       2.343911000000      10.758486000000
63    3       18.937559000000       2.712440000000      10.457403000000
64    1       10.389075000000       7.277138000000      23.071552000000
65    2       10.574729000000       6.292195000000      24.345182000000
66    3       11.213879000000       6.429087000000      25.171597000000
67    1       12.832665000000       1.775297000000      22.583748000000
68    2       12.489519000000       2.758756000000      23.920458000000
69    3       11.779465000000       3.373477000000      23.741842000000
70    1       18.146013000000       2.207439000000      22.296783000000
71    2       17.950853000000       3.605098000000      23.264366000000
72    3       18.425407000000       4.476116000000      23.121414000000
73    1       15.569265000000       7.819944000000      22.894428000000
74    2       16.383596000000       6.973101000000      24.020042000000
75    3       16.235914000000       7.240342000000      24.978754000000
76    1       12.700353000000       9.747852000000      12.689750000000
77    2       12.586275000000      10.933376000000      11.568258000000
78    3       11.678851000000      10.873212000000      11.006984000000
79    1       17.819651000000       9.279106000000      12.573021000000
80    2       17.641129000000      10.719353000000      11.771230000000
81    3       16.891119000000      11.395403000000      11.913186000000
82    1       15.384752000000       0.201528000000      12.892772000000
83    2       15.815361000000      13.405939000000      11.691502000000
84    3       15.413183000000      13.556396000000      10.845572000000
85    1       10.276863000000       0.319294000000      12.863116000000
86    2       10.916226000000      13.420067000000      12.019212000000
87    3       11.767211000000      12.914461000000      12.271687000000
88    1       15.570997000000       0.465797000000      22.938847000000
89    2       15.351269000000      14.304280000000      24.485958000000
90    3       15.219648000000      13.426002000000      24.865763000000
91    1       12.740807000000       9.219710000000      23.131645000000
92    2       12.181192000000       9.752715000000      24.641991000000
93    3       11.234282000000      10.149957000000      24.767181000000
94    1       17.771639000000       9.842381000000      22.560923000000
95    2       17.830524000000      10.234481000000      24.088953000000
96    3       16.945576000000      10.525107000000      24.369919000000
97    1       20.163305000000       5.917127000000      14.828965000000
98    1        2.678358000000       2.141032000000      17.638294000000
99    1        5.293102000000       5.452706000000      14.936898000000
100    1        2.571873000000       3.948885000000      15.085272000000
101    1        7.880199000000       3.780368000000      15.118386000000
102    1        0.110630000000       0.634440000000      17.594866000000
103    1        2.613914000000       3.764209000000      20.222073000000
104    1        0.325127000000       5.615594000000      20.024008000000
105    1        4.950030000000       5.610489000000      20.260210000000
106    1        7.471501000000       3.784503000000      20.414442000000
107    1        7.814154000000       1.988007000000      17.833094000000
108    1        5.073797000000      12.859010000000      15.494280000000
109    1        7.665124000000      11.187920000000      15.542438000000
110    1        0.121811000000      12.455458000000      15.584510000000
111    1        2.670125000000      10.842757000000      15.177099000000
112    1        7.545637000000       9.042831000000      17.833437000000
113    1        5.229620000000       0.204287000000      18.063713000000
114    1        0.101616000000       7.198885000000      17.616053000000
115    1        2.311813000000      11.125398000000      20.075861000000
116    1       20.207666000000      13.178240000000      20.002928000000
117    1        5.020468000000      12.682931000000      20.645170000000
118    1        7.460526000000      10.670029000000      20.477167000000
119    1        2.607575000000       9.039032000000      17.646519000000
120    1        5.114133000000       7.075229000000      17.668991000000
121    1       10.297935000000       5.937758000000      15.204378000000
122    1       15.203042000000       7.291481000000      17.900133000000
123    1       15.151441000000       5.922805000000      15.113339000000
124    1       17.601234000000       4.055690000000      14.642308000000
125    1       12.688508000000       3.991587000000      15.099692000000
126    1       12.586019000000       3.747314000000      20.363346000000
127    1       14.987116000000       5.638989000000      20.533670000000
128    1       17.692959000000       3.954020000000      19.829659000000
129    1       17.795813000000       2.334008000000      17.234606000000
130    1        9.986710000000       5.631145000000      20.386326000000
131    1       12.819372000000       2.338981000000      17.761395000000
132    1       15.316870000000       0.360653000000      17.660240000000
133    1       10.208247000000      13.186606000000      15.618060000000
134    1       12.701271000000      11.301411000000      15.253094000000
135    1       17.757544000000       8.780233000000      18.287743000000
136    1       17.901340000000      10.481552000000      15.516269000000
137    1       15.520096000000      12.649535000000      15.324986000000
138    1       10.182407000000       7.502599000000      17.866171000000
139    1       12.955788000000       9.305468000000      17.796631000000
140    1       12.746464000000      11.041404000000      20.460093000000
141    1       10.041671000000      12.474730000000      20.615303000000
142    1       15.113876000000      13.071259000000      20.255121000000
143    1       17.730219000000      11.443350000000      20.052114000000
144    1       10.412594000000       0.358802000000      18.416348000000
145    2        8.092827000000       2.926931000000      16.539755000000
146    2        8.316097000000       2.849882000000      13.818721000000
147    2        6.081866000000       1.595254000000      12.920323000000
148    2        1.576086000000       1.093581000000      16.949879000000
149    2        8.873875000000       5.116659000000      15.266735000000
150    2        0.178123000000       7.139142000000      15.979184000000
151    2        6.263936000000       4.096393000000      15.014801000000
152    2        0.987439000000       1.137578000000      12.712960000000
153    2        3.597344000000       0.865888000000      12.270490000000
154    2        2.632177000000       2.510460000000      14.236712000000
155    2        3.786009000000       4.876325000000      14.454335000000
156    2        2.800349000000       3.480334000000      16.682703000000
157    2        1.202866000000       4.840567000000      14.828759000000
158    2        5.135998000000       6.219284000000      16.335430000000
159    2        5.822076000000       6.438977000000      13.657474000000
160    2        8.821203000000       0.782765000000      12.202122000000
161    2        4.061772000000       1.365855000000      18.176693000000
162    2       19.882900000000       6.493128000000      13.369441000000
163    2        2.083516000000       2.800156000000      19.062738000000
164    2        1.450719000000       4.774996000000      20.832573000000
165    2        3.752016000000       4.727419000000      19.610973000000
166    2        3.270387000000       2.837868000000      21.466751000000
167    2        0.191167000000       7.019533000000      20.867403000000
168    2        4.542351000000       1.071379000000      23.261232000000
169    2        1.976562000000       0.649102000000      22.684938000000
170    2        4.421261000000       6.756463000000      21.377741000000
171    2        5.775585000000       6.316342000000      18.984945000000
172    2        7.014608000000       2.870108000000      19.179649000000
173    2        8.550366000000       4.901659000000      19.829376000000
174    2        6.138533000000       4.601175000000      20.976673000000
175    2        8.145728000000       2.871109000000      21.598419000000
176    2        7.241042000000       0.415478000000      22.858198000000
177    2        0.688138000000       5.931530000000      18.399725000000
178    2        9.765675000000       1.188047000000      22.981270000000
179    2        9.241712000000       1.533534000000      18.488285000000
180    2       10.302134000000       6.862952000000      19.382900000000
181    2        6.635220000000       0.879790000000      17.454868000000
182    2        7.603540000000      10.089836000000      14.337760000000
183    2       19.917458000000      13.610287000000      16.778929000000
184    2        4.823236000000      13.272875000000      17.109514000000
185    2       20.064312000000      13.247758000000      14.174625000000
186    2        4.216569000000       8.643292000000      13.293234000000
187    2        1.616030000000       8.045445000000      12.597652000000
188    2        1.679042000000      12.016627000000      15.751436000000
189    2        2.095028000000      10.416720000000      13.685488000000
190    2        4.111240000000      11.595430000000      15.072508000000
191    2        2.902279000000       9.576075000000      16.138870000000
192    2        8.762676000000       8.081264000000      17.384054000000
193    2        7.533402000000      10.476277000000      16.995583000000
194    2        6.654138000000      12.451169000000      15.325221000000
195    2        4.756441000000      14.166283000000      14.506803000000
196    2        9.306644000000      11.827352000000      15.320900000000
197    2        6.792073000000       8.603317000000      12.334837000000
198    2        9.381114000000       9.013945000000      12.576931000000
199    2        1.065523000000       8.524073000000      18.023491000000
200    2        2.908732000000      10.363107000000      18.690130000000
201    2        0.979549000000      11.960100000000      19.547003000000
202    2        3.438625000000      12.233361000000      20.596777000000
203    2        2.035399000000      10.001641000000      21.265232000000
204    2        0.263666000000       0.242726000000      19.203806000000
205    2        5.174460000000      13.039764000000      22.232988000000
206    2        5.459835000000      13.972989000000      19.642853000000
207    2        7.485369000000       9.344507000000      19.430103000000
208    2        8.584069000000      11.810035000000      20.097736000000
209    2        5.983963000000      11.324940000000      20.451199000000
210    2        7.736789000000      10.237681000000      22.041628000000
211    2        6.510826000000       7.857314000000      22.712410000000
212    2        3.950682000000       8.933890000000      22.991196000000
213    2        3.617840000000       7.728838000000      17.992342000000
214    2        1.255763000000       8.345919000000      23.105129000000
215    2        6.034443000000       8.420041000000      17.462719000000
216    2        9.175235000000       8.357719000000      23.330124000000
217    2        0.221177000000      13.365557000000      21.648766000000
218    2       11.845684000000       1.134019000000      18.305590000000
219    2       18.649279000000       0.757723000000      12.886939000000
220    2       18.834351000000       4.981127000000      15.391290000000
221    2       19.441519000000       2.039231000000      17.420654000000
222    2       18.193537000000       3.476043000000      13.186623000000
223    2       17.374866000000       2.767172000000      15.727419000000
224    2       11.263796000000       1.619331000000      12.738034000000
225    2       13.730621000000       0.587075000000      12.727573000000
226    2       10.803216000000       6.397814000000      16.762909000000
227    2       13.316353000000       2.960793000000      14.015433000000
228    2       12.169059000000       3.041740000000      16.411541000000
229    2       13.814794000000       5.081892000000      15.634412000000
230    2       11.435865000000       4.905854000000      14.573826000000
231    2       16.183947000000       1.662524000000      12.681599000000
232    2       14.682124000000       7.151285000000      14.041576000000
233    2       15.744977000000       6.519663000000      16.563128000000
234    2       16.232649000000       4.994658000000      14.323894000000
235    2       10.229467000000       7.267670000000      14.279064000000
236    2       13.132923000000       3.474133000000      18.879751000000
237    2       11.168786000000       4.502174000000      20.279621000000
238    2       13.762627000000       4.631394000000      21.020811000000
239    2       12.265540000000       2.374636000000      21.213736000000
240    2       14.501619000000       1.670504000000      22.517885000000
241    2       12.204441000000       0.185123000000      22.819571000000
242    2       15.053571000000       6.911666000000      21.622398000000
243    2       14.457186000000       6.356216000000      19.070120000000
244    2       17.597286000000       3.658267000000      18.259596000000
245    2       19.027853000000       4.832500000000      20.133390000000
246    2       16.415583000000       4.803403000000      20.423534000000
247    2       17.686777000000       2.588756000000      20.771029000000
248    2       19.685492000000       1.608996000000      22.328148000000
249    2       16.885641000000       1.002521000000      17.540762000000
250    2        9.898824000000       6.249150000000      21.867958000000
251    2       17.069136000000       1.209917000000      23.023924000000
252    2       14.161836000000       1.490370000000      17.234993000000
253    2       16.279011000000       8.343351000000      18.708183000000
254    2       16.617052000000       8.111432000000      12.478895000000
255    2       10.285961000000      13.624111000000      17.168203000000
256    2       19.140352000000       8.568690000000      11.874069000000
257    2       18.778749000000       7.456504000000      18.128191000000
258    2       14.259135000000       9.348948000000      12.664544000000
259    2       11.960699000000       8.260481000000      12.416779000000
260    2       12.853256000000      10.684711000000      16.782488000000
261    2       12.038629000000      10.143360000000      14.198377000000
262    2       14.231166000000      11.729330000000      14.844171000000
263    2       11.836227000000      12.672406000000      15.183344000000
264    2       15.825071000000      13.891141000000      14.338948000000
265    2       10.055297000000       0.166114000000      14.518008000000
266    2       17.546946000000       9.552574000000      16.813513000000
267    2       15.365191000000      13.270390000000      16.838446000000
268    2       16.741282000000      11.627096000000      15.177617000000
269    2       18.060099000000       9.450843000000      14.185225000000
270    2       19.389997000000      11.162520000000      15.899993000000
271    2       11.314095000000       8.842588000000      17.752325000000
272    2       13.204708000000      10.012127000000      19.245600000000
273    2       11.140734000000      11.301867000000      20.154613000000
274    2       13.639765000000      12.356255000000      20.214054000000
275    2       12.990405000000      10.382216000000      21.946363000000
276    2       14.238608000000       8.637541000000      23.630417000000
277    2       10.121257000000      12.824538000000      22.306696000000
278    2       11.876269000000       7.987502000000      22.545673000000
279    2       10.444942000000      13.930605000000      19.865234000000
280    2       14.970630000000       0.054306000000      19.203371000000
281    2       15.650999000000      13.534669000000      21.774237000000
282    2       18.270288000000      10.019313000000      19.289593000000
283    2       18.668980000000      12.716425000000      19.687920000000
284    2       16.199427000000      11.923362000000      19.702986000000
285    2       17.792774000000      11.273240000000      21.674112000000
286    2       19.137890000000       8.899961000000      22.350374000000
287    2       16.361332000000       9.141241000000      22.180109000000
288    2       14.013546000000       8.239017000000      17.378941000000
289    3       15.517404000000      12.258055000000      26.844259000000
290    3       14.475483000000      11.344872000000      26.180239000000
291    2       14.664137000000      12.330691000000      26.261431000000
292    3       19.100327000000      13.715230000000      27.774981000000
293    3        0.011115000000      12.987613000000      28.564203000000
294    2       19.472513000000      13.527416000000      28.642065000000
295    3       16.155359000000       6.803225000000      30.161215000000
296    3       16.957640000000       7.927624000000      29.371500000000
297    2       16.633642000000       7.703869000000      30.261862000000
298    3       12.595939000000      11.888850000000       3.204022000000
299    3       11.749587000000      11.505382000000       4.283759000000
300    2       11.844396000000      11.226799000000       3.347568000000
301    3        0.858097000000       2.827932000000      32.189983000000
302    3       19.858278000000       3.547473000000      32.819756000000
303    2        0.469212000000       3.212810000000      33.077652000000
304    3        5.725227000000      11.044497000000      29.029533000000
305    3        6.136934000000      10.447324000000      30.435051000000
306    2        6.374912000000      10.443948000000      29.452192000000
307    3       19.248228000000      14.306834000000      34.629539000000
308    3       17.613140000000      14.235456000000      34.399986000000
309    2       18.438675000000      13.734746000000      34.764839000000
310    3        0.877987000000       0.172996000000      33.666916000000
311    3        0.364581000000       1.556225000000      34.081711000000
312    2        0.505420000000       0.655435000000      34.430859000000
313    3       11.510945000000       6.467032000000      33.849560000000
314    3       10.561910000000       7.430993000000      34.602650000000
315    2       10.966172000000       6.546924000000      34.680809000000
316    3        2.676938000000      12.527459000000       7.922596000000
317    3        3.912028000000      12.456666000000       8.847398000000
318    2        3.488580000000      12.002021000000       8.068809000000
319    3        7.189222000000       8.274230000000       1.589170000000
320    3        5.739691000000       7.982563000000       2.159726000000
321    2        6.223075000000       8.098125000000       1.287046000000
322    3        6.398768000000       9.163483000000       6.553556000000
323    3        4.784605000000       8.474836000000       6.634272000000
324    2        5.811778000000       8.363965000000       6.327510000000
325    3       11.697993000000       8.684697000000       1.615685000000
326    3       11.211874000000       9.269265000000       3.043425000000
327    2       11.032178000000       8.594808000000       2.362826000000
328    3       13.613565000000       6.236138000000      27.433973000000
329    3       14.514006000000       4.964108000000      26.924126000000
330    2       14.455894000000       5.697012000000      27.560219000000
331    3       19.721521000000      11.837977000000       3.638936000000
332    3       18.957586000000      10.591293000000       3.468144000000
333    2       19.357611000000      11.329188000000       2.892645000000
334    3        0.393505000000      10.878923000000       1.860468000000
335    3        1.529276000000      11.684687000000       1.160149000000
336    2        1.174789000000      10.748641000000       1.276442000000
337    3       10.862302000000       3.355697000000      26.919020000000
338    3       11.600626000000       3.201165000000      28.344954000000
339    2       11.580191000000       3.699400000000      27.490742000000
340    3       18.180342000000      13.106764000000      30.087196000000
341    3       16.940094000000      13.744022000000      30.743599000000
342    2       17.328941000000      12.840250000000      30.527241000000
343    3        2.456290000000       6.171643000000      32.886391000000
344    3        1.815264000000       6.694174000000      31.564577000000
345    2        2.474670000000       6.975154000000      32.297443000000
346    3        7.021843000000       3.229001000000       6.080395000000
347    3        5.960419000000       3.770423000000       5.046018000000
348    2        6.892754000000       3.917243000000       5.331588000000
349    3       15.999882000000       0.065819000000       8.639057000000
350    3       14.993221000000      13.312772000000       7.997276000000
351    2       15.199438000000      13.744497000000       8.843853000000
352    3        2.949252000000       8.864609000000       8.151450000000
353    3        3.554365000000      10.297000000000       7.987096000000
354    2        3.416277000000       9.491888000000       7.486225000000
355    3        1.251230000000      11.099482000000       5.253639000000
356    3        1.491204000000      12.499264000000       4.679167000000
357    2        0.783095000000      11.987262000000       5.028738000000
358    3        5.353921000000       2.370527000000      27.629475000000
359    3        5.240941000000       3.523282000000      26.547499000000
360    2        5.557152000000       3.358879000000      27.542217000000
361    3       19.289064000000       4.777482000000      27.830605000000
362    3       20.128588000000       5.718040000000      28.880823000000
363    2       19.787371000000       5.659896000000      27.953812000000
364    3       19.693384000000       5.033894000000       7.596983000000
365    3       19.663120000000       3.456057000000       7.256443000000
366    2       20.136450000000       4.130476000000       7.865197000000
367    3       14.932278000000       5.232545000000      29.179949000000
368    3       16.206022000000       4.496634000000      29.965416000000
369    2       15.482740000000       5.259521000000      30.011059000000
370    3       15.154507000000      11.617566000000       6.168478000000
371    3       13.784236000000      12.417474000000       6.119520000000
372    2       14.750160000000      12.553576000000       6.337056000000
373    3        4.309789000000       0.448280000000      34.205322000000
374    3        4.388543000000      13.228734000000      34.260788000000
375    2        3.817620000000      13.953512000000      34.060001000000
376    3       14.125592000000      13.637672000000      29.927706000000
377    3       13.054548000000       0.370992000000      29.799824000000
378    2       14.008719000000       0.238289000000      29.585577000000
379    3       17.352791000000       6.219171000000       6.403252000000
380    3       16.069441000000       5.220972000000       6.379208000000
381    2       16.372297000000       6.197757000000       6.150060000000
382    3       18.449799000000      12.109722000000      33.395836000000
383    3       17.996260000000      11.917096000000      31.995344000000
384    2       18.177889000000      11.381134000000      32.834858000000
385    3       16.938433000000       4.175716000000      34.934071000000
386    3       16.513872000000       5.666050000000      34.770168000000
387    2       16.724455000000       4.818885000000      34.238529000000
388    3       16.078796000000      11.625403000000       1.297611000000
389    3       15.067791000000      11.936443000000       2.354865000000
390    2       15.171156000000      11.299555000000       1.629477000000
391    3        5.300529000000      11.193988000000      32.549793000000
392    3        5.032842000000       9.635725000000      32.362354000000
393    2        4.987902000000      10.543308000000      31.904722000000
394    3       11.065842000000      13.363957000000       8.724899000000
395    3       12.495234000000      12.982325000000       9.182450000000
396    2       11.723475000000      12.618529000000       8.772985000000
397    3        2.284217000000       5.314927000000       6.289211000000
398    3        1.564566000000       4.669114000000       7.389416000000
399    2        2.492914000000       5.116789000000       7.246463000000
400    3       17.380367000000       9.306904000000       4.039600000000
401    3       18.357510000000       9.371099000000       5.417498000000
402    2       18.310450000000       9.283721000000       4.394487000000
403    3       14.599063000000      11.678233000000      34.312160000000
404    3       14.012889000000      11.582716000000       0.101539000000
405    2       13.773542000000      11.960979000000      34.918137000000
406    3        0.082476000000       5.983188000000       0.065901000000
407    3        0.957800000000       7.283163000000       0.131083000000