 #  i =    10000, time =     5000.000, E =     -6471.0009221557
  
         864  atoms
           3  atom types
 
      0.000000000000      20.251000000000  xlo xhi
      0.000000000000      14.320000000000  ylo yhi
      0.000000000000      35.707675000000  zlo zhi
 
Masses
 
            1   28.08500000             # Si
            2   15.99900000             # O
            3   1.00800000              # H
 
Atoms # atomic
 
         1    1        2.345308037800       1.927436276200      12.789753501000
         2    2        2.320445812400       3.266040994200      11.704350613600
         3    3        1.485925674000       3.185541967300      11.169309217000
         4    1       10.426231861400       7.729353199800      12.696416514600
         5    2       10.078885905000       6.438551990600      11.688217409600
         6    3       10.982798366200       5.882941684000      11.435931283800
         7    1        0.139973333800       7.448950536800      12.077446264800
         8    2        0.325645600300       6.448111224900      10.739167205400
         9    3        1.055074916600       6.821791613700      10.112957772600
        10    1        5.368863420200       7.673368393500      12.669697670100
        11    2        4.565379970300       7.088691757500      11.285225253800
        12    3        4.868752211000       6.362571655700      10.665768379000
        13    1        7.617864471900       2.035403452900      12.573285546900
        14    2        7.599846428700       3.063130330600      11.194730454900
        15    3        6.636329127900       3.175885293700      10.943500183500
        16    1       19.986353793200      14.257584452700      12.930495151400
        17    2       20.241951442700      13.337344211000      11.559060568100
        18    3        0.086743556800      12.352745303900      11.659025008800
        19    1       20.211389136700       7.693785969700      22.407466073400
        20    2       19.621174355600       6.515523141500      23.484753000900
        21    3       18.663329231700       6.633350158800      23.748178600700
        22    1        4.900420160400       7.459129546700      22.815127415200
        23    2        4.633092620300       6.501383430300      24.140278392900
        24    3        4.668961848000       7.005220410100      25.060073666800
        25    1        3.090600051400       1.935320071100      22.899458707000
        26    2        2.695594222300       3.021286759700      24.015492352400
        27    3        2.535216001800       2.447628443100      24.856354099000
        28    1        8.202487223200       1.787587204400      22.870067175700
        29    2        7.984110939300       2.768325606700      24.235827400900
        30    3        6.986667779800       2.888910575500      24.369879373600
        31    1        2.749857786100       9.238197626500      12.650102918200
        32    2        3.006409492800       9.950048853000      11.222632282900
        33    3        3.378628370000      10.831705498100      11.444934671300
        34    1        7.919356631400       9.671186346600      12.780165964500
        35    2        7.678825640000      11.005882846700      11.748994479900
        36    3        6.822512489700      11.457046372100      11.871929323700
        37    1        5.002973476100       0.253079038200      12.882435264800
        38    2        5.542842686600      13.212479876800      12.036006315400
        39    3        5.469628223200      13.465654076300      11.074537951200
        40    1        5.638874967700      14.243284263900      23.317896702600
        41    2        5.883443692100      13.550867782700      24.812304728100
        42    3        6.588110286700      13.799814482200      25.462892232800
        43    1        2.462491399800       9.542505609300      22.863637947600
        44    2        2.453045928900      10.915169989600      23.971044320600
        45    3        3.284825798900      10.888325363500      24.579779909200
        46    1        0.369241175500       0.268553847100      22.730354943500
        47    2       19.946796192200      14.057344222600      24.118115892900
        48    3        0.021804881900      13.093601374000      24.519459714900
        49    1        7.674112487600       8.940771423400      23.156945998200
        50    2        7.178692176500       9.583526920000      24.624766693400
        51    3        8.038936293600      10.044770085800      24.993795573600
        52    1       10.625291699600      14.073457709900      23.207833385900
        53    2       10.465134761100      13.513362176900      24.711506385000
        54    3       11.000209182200      13.991835760400      25.549253003600
        55    1       12.931912736400       1.978024826400      12.708299220000
        56    2       13.313832441300       2.823838041300      11.368764851200
        57    3       13.338728992300       2.285273431800      10.486069481500
        58    1       14.975123348400       7.874408753900      12.567776831800
        59    2       14.556814552200       6.866633646900      11.282447554800
        60    3       13.959692848700       6.085297612600      11.570811265600
        61    1       17.769152518800       2.095140729000      12.306925304700
        62    2       17.942334399300       2.430514963900      10.738355797100
        63    3       18.711485726000       3.044841403300      10.636225763300
        64    1       10.392005991900       7.323469263500      23.127518706600
        65    2       10.615124264000       6.362598330000      24.477353268600
        66    3       11.253432651100       6.599696828100      25.233374570600
        67    1       12.810379552700       1.765784523800      22.672943709300
        68    2       12.429484867000       2.729699441000      23.965472899100
        69    3       11.605294177300       3.240752018900      23.874078961100
        70    1       18.140004508300       2.245154826400      22.349396271800
        71    2       18.012010930700       3.564120404900      23.311003012800
        72    3       18.653506152700       4.305313067800      23.022735796900
        73    1       15.579642203300       7.902674853900      22.827629111100
        74    2       16.569468130500       7.029329707000      23.916652614900
        75    3       16.533991217700       7.299222374300      24.918670580600
        76    1       12.599706942300       9.794745631400      12.666985748100
        77    2       12.542046013700      10.983805137300      11.483775160800
        78    3       11.780769630200      10.969800952600      10.786112164200
        79    1       17.835477324800       9.305932517600      12.545978876300
        80    2       17.660047731400      10.822970292700      11.811853800900
        81    3       17.002303907000      11.354802814700      12.317851452900
        82    1       15.426327180300       0.194762852300      12.790073682500
        83    2       15.872196878500      13.372820135700      11.676876145600
        84    3       15.603087908000      13.428426490700      10.757551123900
        85    1       10.227337501200       0.432527380200      12.857976544000
        86    2       10.902255993600      13.406296323500      12.074475935700
        87    3       11.825073466200      13.299704743000      12.453027648100
        88    1       15.639589789400       0.413523756000      22.906167569800
        89    2       15.473048463700      14.238886628700      24.533330485000
        90    3       14.784019271400      13.586923151100      24.682413528600
        91    1       12.796991150700       9.256978893600      23.154497851900
        92    2       12.204971461800       9.809219624600      24.583957947700
        93    3       11.317274102300      10.201439019400      24.732527379100
        94    1       17.798143359200       9.874951085600      22.529603677000
        95    2       17.772510267100      10.318259159300      24.295689914100
        96    3       17.164218174900      11.030605163200      24.569776554100
        97    1       20.163200945900       5.843583224200      14.855254992000
        98    1        2.653232720800       2.212886564000      17.684200899400
        99    1        5.322422980200       5.407692375400      14.836149492000
       100    1        2.616904816300       3.992653094000      15.061403629700
       101    1        7.940941977100       3.753592666000      15.106260403900
       102    1        0.190741529200       0.621209600500      17.543709340100
       103    1        2.636418282800       3.768776096500      20.296424666800
       104    1        0.205236024500       5.557987638800      20.016047854900
       105    1        5.016460147900       5.660525934600      20.363412405000
       106    1        7.383790283500       3.843467595700      20.431007387900
       107    1        7.729800000000       2.019330000000      17.874501949800
       108    1        5.063980094700      12.836690085300      15.508081582100
       109    1        7.786564095500      11.174946641600      15.564035945200
       110    1        0.054691533700      12.521487297200      15.632561501700
       111    1        2.708101331700      10.817274954300      15.134292691400
       112    1        7.498690900000       9.042757621900      17.876334903100
       113    1        5.242492783500       0.235394572000      18.101607385000
       114    1        0.043870378800       7.261538979500      17.662675704000
       115    1        2.365931600500      11.073273874800      20.066162208600
       116    1       20.216480001500      13.177756983400      19.973880258200
       117    1        5.035862817400      12.674631662800      20.642752340200
       118    1        7.491852375600      10.723693158400      20.512458846800
       119    1        2.673970000000       9.052650000000      17.671525500000
       120    1        5.166143267600       7.078662492100      17.687149537100
       121    1       10.358462605700       5.973875800500      15.313728423200
       122    1       15.122212272600       7.272117155100      17.929939566000
       123    1       15.208990810800       5.991247248100      15.102509144400
       124    1       17.677130862100       4.030683347900      14.667262864400
       125    1       12.673788510100       4.031920393600      15.063247216900
       126    1       12.592369412700       3.734070158900      20.307346363700
       127    1       14.977834432900       5.669827309600      20.498373191400
       128    1       17.708607458700       3.967178590200      19.887063092900
       129    1       17.882127823500       2.296806554500      17.309912323600
       130    1        9.909973086300       5.631839347300      20.447298296500
       131    1       12.827720000000       2.305010000000      17.627171500000
       132    1       15.344784600600       0.389613910900      17.713582091600
       133    1       10.243833737600      13.210413687200      15.493564549800
       134    1       12.637505688300      11.292031698200      15.243828233700
       135    1       17.738805944800       8.850129919200      18.274427742900
       136    1       17.903742522500      10.467537914500      15.528248235100
       137    1       15.469353529400      12.651801645500      15.352632557900
       138    1       10.243879000000       7.541907000000      17.880777220000
       139    1       12.887290000000       9.375290000000      17.758816500000
       140    1       12.757375774100      11.017127557200      20.406358318300
       141    1       10.061976127100      12.529863667600      20.605475376800
       142    1       15.133839523700      13.043607480500      20.256019625100
       143    1       17.722856180000      11.459295651100      20.038027918000
       144    1       10.399646755500       0.458161524200      18.403125655900
       145    2        7.959436091500       2.929370087000      16.529269936300
       146    2        8.360205700500       2.743796686100      13.866947731900
       147    2        6.122154434300       1.451026243200      12.952249324800
       148    2        1.634908038500       1.116765618000      16.924912098700
       149    2        8.913740408800       5.092617151900      15.273138900400
       150    2        0.150135219600       7.026812257600      15.990492375700
       151    2        6.293805734900       4.095969080800      15.023904582200
       152    2        0.899898801200       1.095857391400      12.761156188000
       153    2        3.644825938400       0.887816135700      12.209238154200
       154    2        2.725036879200       2.478439992900      14.288471754400
       155    2        3.805103575900       4.909963368600      14.443885091000
       156    2        2.813861565900       3.494256076300      16.602553859500
       157    2        1.173124521800       4.781202332300      14.769058816800
       158    2        5.163694882500       6.016249786500      16.417124496900
       159    2        5.854059973000       6.381924269700      13.645252823000
       160    2        8.762332516100       0.877772659900      12.183547017300
       161    2        4.016049714100       1.380278955400      18.131766387700
       162    2       19.965949764200       6.469676674100      13.301560922700
       163    2        1.963678498900       2.804886560500      19.079587222900
       164    2        1.431302659600       4.715101011500      20.822763002000
       165    2        3.809899539400       4.716579916100      19.621794109800
       166    2        3.300529816400       2.797103930200      21.485746803200
       167    2        0.205052025200       7.016618539600      20.896790826900
       168    2        4.435137123700       1.152943174400      23.392601250800
       169    2        2.013028954200       0.611389190100      22.663638295500
       170    2        4.444726036800       6.752283402600      21.430798378100
       171    2        5.628827695100       6.256142690900      19.015741087700
       172    2        7.001121158600       2.807132846800      19.084177358500
       173    2        8.525599227300       4.954115445400      19.885131614200
       174    2        6.060834236400       4.659441982800      21.076284687100
       175    2        7.985042839900       2.783230085900      21.581950221600
       176    2        7.124483778900       0.511894860300      22.814451994100
       177    2        0.671125690300       5.807394434600      18.460224210200
       178    2        9.836653645300       1.377022898300      23.027404642000
       179    2        9.196465728400       1.514065600200      18.369669067400
       180    2       10.247070859300       6.848855877500      19.339823092700
       181    2        6.662894893900       0.839086241500      17.492010047700
       182    2        7.636200193600      10.004248240400      14.373490267800
       183    2       19.869673289200      13.590028998200      16.765804688600
       184    2        4.732372256600      13.310561550400      17.051224896500
       185    2       20.089404406900      13.213578016200      14.152641826900
       186    2        4.181226945200       8.704136317700      13.265192867200
       187    2        1.536020737600       8.154977624500      12.517322734000
       188    2        1.600654957100      11.975199138200      15.705798630100
       189    2        2.182487750900      10.391555556500      13.658383013200
       190    2        4.166418407100      11.535210495200      15.093165570100
       191    2        2.949008765500       9.516289282900      16.143731877700
       192    2        8.752374992900       8.087505523700      17.374933382200
       193    2        7.412953810700      10.513193462000      17.067276852000
       194    2        6.627354028500      12.337687903900      15.329394076900
       195    2        4.855956411200      14.107243357500      14.423191829100
       196    2        9.160902401200      11.982853982900      15.411803643000
       197    2        6.751134020500       8.541726409000      12.426847410400
       198    2        9.427787345800       9.058632023000      12.407802068500
       199    2        1.099088138900       8.503729359700      17.901434552200
       200    2        2.900743952100      10.413426424700      18.622963068600
       201    2        0.942570933800      11.848967393500      19.713041252200
       202    2        3.442950677200      12.222362123500      20.488962824500
       203    2        2.048656872500      10.064214875800      21.369281709800
       204    2        0.228663333900       0.335041152700      19.188834301300
       205    2        5.178807776900      13.051586972000      22.279983724700
       206    2        5.478420119900      13.961934576500      19.693974528500
       207    2        7.525655673600       9.361105117400      19.596138800000
       208    2        8.614309628300      11.934579354500      20.047355576300
       209    2        5.891453991800      11.283807204000      20.403680554500
       210    2        7.838777926900      10.195949552900      22.043354083500
       211    2        6.522814826400       7.825149014000      22.644316080800
       212    2        3.982183377100       8.859389216100      23.001252264400
       213    2        3.687468737300       7.805189732200      18.020386952600
       214    2        1.350797663400       8.282357002900      23.169865018100
       215    2        6.110508881000       8.346650893700      17.418427180700
       216    2        9.231203510100       8.480471334000      23.315723522400
       217    2        0.215871297600      13.450048318200      21.578306808000
       218    2       11.834501193500       1.229239805400      18.330565948000
       219    2       18.515745279800       0.741138157100      13.045373963900
       220    2       18.823776886500       4.999844573300      15.397290917300
       221    2       19.441602571600       1.948478009300      17.451087649600
       222    2       18.220611905100       3.477185505200      13.195085372200
       223    2       17.418154434200       2.793700359300      15.709527877600
       224    2       11.238837614400       1.738973289900      12.825263831100
       225    2       13.768150947400       0.467853739800      12.706944445200
       226    2       10.819812525800       6.387060256500      16.825150012000
       227    2       13.241104677500       2.951162069700      13.956297500800
       228    2       12.073070650900       3.085014787700      16.338421002600
       229    2       13.857204511900       5.109299560500      15.481150079000
       230    2       11.445324766600       5.004625645600      14.558789392300
       231    2       16.167574870500       1.671797288800      12.540553410000
       232    2       14.734206953500       7.122448872000      14.041191933600
       233    2       15.760755180500       6.543996226800      16.554498744600
       234    2       16.333518346000       4.945229028000      14.309675395500
       235    2       10.259943784000       7.338188580300      14.317631982300
       236    2       13.085377259400       3.405988248800      18.762277423300
       237    2       11.185214391600       4.622922131300      20.205267963300
       238    2       13.735213035400       4.681095372800      21.055537857000
       239    2       12.179459266700       2.392064695500      21.211793759300
       240    2       14.446201714400       1.562986533500      22.468934330900
       241    2       12.190686596700       0.267909935600      22.874390472600
       242    2       15.161635047000       6.799799220900      21.668862604600
       243    2       14.533151342200       6.215018117500      19.046388709400
       244    2       17.493345742700       3.598825048800      18.241472454500
       245    2       19.036747706100       4.867692811300      20.240617419300
       246    2       16.405296209500       4.852513945100      20.426192602700
       247    2       17.744108202100       2.562379547500      20.742773102900
       248    2       19.723481156500       1.647675089300      22.353269384100
       249    2       16.903964142300       0.973623135400      17.627093211200
       250    2        9.642132485000       6.290376598800      21.976197456800
       251    2       17.023519326900       1.281083575800      23.077424229900
       252    2       14.229444958700       1.478394502500      17.141979942200
       253    2       16.243995802900       8.181925305200      18.685334560400
       254    2       16.545000754400       8.284388051300      12.329429519500
       255    2       10.234713373700      13.659751801500      17.147611441900
       256    2       19.197502108200       8.571761133200      11.779329538900
       257    2       18.671573355200       7.437639402000      18.150633974000
       258    2       14.280402151300       9.390659527300      12.570650442000
       259    2       11.916976241300       8.310900379500      12.377370168900
       260    2       12.824177442700      10.694926022500      16.757279265700
       261    2       12.078943567200      10.164493516500      14.197884768500
       262    2       14.239263285400      11.719609215000      14.848016216200
       263    2       11.667317940700      12.683453273200      15.100726208400
       264    2       15.835112707200      13.959815383800      14.320715859300
       265    2       10.047627239300       0.139691872700      14.486311766500
       266    2       17.494261293100       9.475157078700      16.810832436600
       267    2       15.386584107100      13.226446500900      16.939257278200
       268    2       16.829103186900      11.638224547600      15.136598235300
       269    2       18.095008619200       9.481986837800      14.233874431200
       270    2       19.328000340500      11.237582756200      15.914102365900
       271    2       11.263801829700       8.816943609200      17.707958218300
       272    2       13.294793663000       9.992827739300      19.249970183000
       273    2       11.150862413300      11.374513008700      20.231195510900
       274    2       13.621628019900      12.425921473100      20.256342878700
       275    2       13.061365280400      10.453053664800      21.991407108800
       276    2       14.263796191900       8.542819161900      23.530008402200
       277    2       10.145463197000      12.812225303100      22.210237856500
       278    2       11.710207847800       8.034658165200      22.486525290000
       279    2       10.336215217600      13.990797310500      19.906973347300
       280    2       14.891079787200       0.031531468000      19.257733775800
       281    2       15.579771466600      13.543482886900      21.770283820600
       282    2       18.173446313400      10.022101410300      19.391269197900
       283    2       18.638542564600      12.764647489400      19.656789412600
       284    2       16.241738735500      12.008288387500      19.640653640100
       285    2       17.811076802300      11.250787966500      21.731227521500
       286    2       19.060843930000       8.916841819400      22.416095056000
       287    2       16.332323517800       9.164315554400      22.026098167800
       288    2       13.933840727000       8.258075026600      17.303220058900
       289    3       15.554956191800      12.185974730200      26.865606962500
       290    3       14.544543713900      11.274487216400      26.105984260100
       291    2       14.768804279600      12.243654279800      26.227169478900
       292    3       19.416186383400      13.725015786500      27.753917567600
       293    3       20.141548903900      12.704328449400      28.707263907300
       294    2       19.512488134400      13.451907383900      28.664356010100
       295    3       16.268280290600       6.603547924000      29.934198851200
       296    3       17.228258675800       7.823660159400      29.419468285300
       297    2       16.541811346900       7.581942039000      30.100969916100
       298    3       12.704099873400      11.508207838600       3.208238190100
       299    3       11.721667095100      11.444686329700       4.262867257400
       300    2       11.742209796600      11.147215513700       3.337951420800
       301    3        0.943631130700       2.828202904300      32.320743251500
       302    3       19.976937882600       3.544395692700      32.798907189700
       303    2        0.572627114900       3.244020951900      33.154356051700
       304    3        5.600866161100      10.994837626300      28.949282989600
       305    3        5.973568384800      10.492811822900      30.404565787000
       306    2        6.261909225800      10.437416797800      29.448906401900
       307    3       19.204791074300      14.249693858600      34.756101418800
       308    3       17.627278535200      14.123653206600      34.391915557600
       309    2       18.422086687200      13.623497871000      34.772643479400
       310    3        0.845765495600       0.156498320000      33.530100628600
       311    3        0.747329696100       1.470389858600      34.306103396300
       312    2        0.514117877300       0.548564291800      34.373042527100
       313    3       11.633567961800       6.432744399100      33.859574540600
       314    3       10.317383097400       7.139201346000      34.362165529200
       315    2       11.007663095200       6.494864930900      34.641808323800
       316    3        2.622386282100      12.426499763600       8.041702176200
       317    3        4.083507651800      12.714278461800       8.684530335900
       318    2        3.544665969700      11.977595227200       8.262047497200
       319    3        7.165261290500       8.404335830900       1.533122478700
       320    3        5.767210043800       8.223984938400       2.256859086700
       321    2        6.201608820400       8.161329672900       1.325514998900
       322    3        6.650028911900       8.943655274300       6.259632273400
       323    3        5.170885169600       8.814923966800       7.151757164000
       324    2        5.854951058500       8.333003829000       6.428475315300
       325    3       11.550717482400       8.320064581300       1.591099427000
       326    3       11.349761320400       9.542883130600       2.562405642500
       327    2       11.066361367400       8.629733301400       2.374697423600
       328    3       13.716544332800       6.114199864500      27.219143128200
       329    3       14.680816710300       4.860633392200      26.985171851100
       330    2       14.534145744000       5.633561743100      27.555008108000
       331    3       19.964826421500      11.582149128600       3.642217654800
       332    3       19.042590572000      10.454478271200       3.246093981100
       333    2       19.406378700900      11.318630688300       2.874842329000
       334    3        0.446711975100      10.896546575700       1.874797080800
       335    3        1.319925570300      11.586862537500       0.823926809200
       336    2        1.263005974900      10.741096201100       1.327534514100
       337    3       10.704627626000       3.435765325200      27.256610410200
       338    3       11.816938142400       3.216021959700      28.448276183300
       339    2       11.575036783800       3.702104185300      27.609777304900
       340    3       18.195825958700      13.202743403600      30.103721060700
       341    3       16.933185248600      13.770358174900      30.760875417300
       342    2       17.403596204900      12.883300615200      30.614379236100
       343    3        2.281561819800       6.133900166700      32.800766349200
       344    3        1.778085674000       6.918048930100      31.466644230400
       345    2        2.383458310500       7.008184341400      32.294322877700
       346    3        7.117069814700       3.121993424100       6.036918402200
       347    3        6.006538193800       3.616478510000       4.986847975400
       348    2        6.911420194900       3.942752752300       5.439063490500
       349    3       16.083814231600       0.031047183300       8.614462036700
       350    3       15.079949416700      13.243149696200       8.103607818600
       351    2       15.247325475900      13.787695495000       8.891390644100
       352    3        3.246526738900       9.043469228900       8.426705772800
       353    3        3.480338687700      10.519383724300       7.837260377100
       354    2        3.481682155600       9.515744270900       7.553944257300
       355    3        1.030872298900      11.026168290600       5.266480661900
       356    3        1.642695814100      12.273290311400       4.638209213900
       357    2        0.735777042200      11.986800748700       4.980575093200
       358    3        5.230811267900       2.322516597100      27.579824026900
       359    3        5.522944591400       3.370899512200      26.452049938600
       360    2        5.568644852100       3.243086237200      27.493632461100
       361    3       19.269347884400       4.843924251900      27.897596651300
       362    3       20.168725063500       5.842183684100      28.811200027000
       363    2       19.737891030400       5.699445804500      27.943012656200
       364    3       19.819196575100       5.081064646200       7.578040126000
       365    3       19.554762321000       3.504039275700       7.381220997900
       366    2       20.162666798400       4.188603359100       7.923197749300
       367    3       14.979229557700       5.229367706200      29.149253599900
       368    3       16.210962252600       4.468043370000      29.950091084900
       369    2       15.491872197500       5.190440405100      30.005567038300