# File generated with Atomsk by j281j388 on 2026-06-01 13:01:00

864  atoms
3  atom types

0.000000000000      20.251000000000  xlo xhi
0.000000000000      14.320000000000  ylo yhi
0.000000000000      35.707675000000  zlo zhi

Masses

1   28.08500000             # Si
2   15.99900000             # O
3   1.00800000              # H

Atoms # atomic

1    1        2.349439000000       1.832957000000      12.673926000000
2    2        2.303964000000       3.088950000000      11.670349000000
3    3        1.398438000000       3.269789000000      11.285112000000
4    1       10.391746000000       7.765890000000      12.776519000000
5    2       10.054369000000       6.471337000000      11.787577000000
6    3       10.859589000000       6.153568000000      11.299487000000
7    1        0.092529000000       7.508630000000      12.165719000000
8    2        0.216188000000       6.607620000000      10.777434000000
9    3        0.926068000000       7.065959000000      10.189442000000
10    1        5.300659000000       7.715171000000      12.636695000000
11    2        4.608033000000       7.097618000000      11.249369000000
12    3        4.995120000000       6.728709000000      10.441058000000
13    1        7.809878000000       1.984721000000      12.553881000000
14    2        7.476318000000       2.994554000000      11.204979000000
15    3        6.474878000000       3.045525000000      10.959251000000
16    1       19.978523000000      14.212080000000      12.785575000000
17    2       20.198900000000      13.172908000000      11.500215000000
18    3        0.454142000000      12.388743000000      11.693398000000
19    1       20.212305000000       7.632907000000      22.514439000000
20    2       19.539255000000       6.427634000000      23.454855000000
21    3       18.562325000000       6.535130000000      23.599731000000
22    1        4.865099000000       7.521011000000      22.913042000000
23    2        4.612008000000       6.578396000000      24.268217000000
24    3        4.450366000000       7.073222000000      25.146259000000
25    1        3.141453000000       1.925650000000      22.795765000000
26    2        2.856574000000       3.045780000000      24.000162000000
27    3        2.442024000000       2.541723000000      24.775324000000
28    1        8.214520000000       1.900136000000      22.847853000000
29    2        7.892029000000       2.767199000000      24.233158000000
30    3        6.935795000000       3.097399000000      24.105623000000
31    1        2.834379000000       9.320281000000      12.639638000000
32    2        3.020162000000       9.887019000000      11.087193000000
33    3        3.765270000000      10.482411000000      10.828868000000
34    1        7.846394000000       9.683242000000      12.887362000000
35    2        7.766364000000      11.063262000000      11.903395000000
36    3        7.398671000000      11.933496000000      12.219226000000
37    1        5.138780000000       0.202170000000      12.884559000000
38    2        5.587142000000      13.160428000000      11.956592000000
39    3        5.460456000000      13.459875000000      11.011703000000
40    1        5.739158000000      14.305973000000      23.301903000000
41    2        5.812763000000      13.524521000000      24.743614000000
42    3        6.405201000000      13.850494000000      25.477182000000
43    1        2.460890000000       9.447440000000      22.733986000000
44    2        2.488106000000      10.619790000000      23.915831000000
45    3        3.296676000000      10.699253000000      24.505104000000
46    1        0.314756000000       0.333058000000      22.653019000000
47    2       20.145575000000      14.102343000000      24.154470000000
48    3        0.024383000000      13.164491000000      24.433266000000
49    1        7.609046000000       9.113755000000      23.184731000000
50    2        7.025731000000       9.709525000000      24.703348000000
51    3        7.861427000000      10.121862000000      25.113863000000
52    1       10.573225000000      14.165735000000      23.185392000000
53    2       10.282180000000      13.651674000000      24.724884000000
54    3       10.930373000000      14.047183000000      25.455538000000
55    1       12.984849000000       2.028890000000      12.693347000000
56    2       13.266222000000       2.809515000000      11.262992000000
57    3       13.546373000000       2.280769000000      10.421811000000
58    1       15.042718000000       7.908995000000      12.647865000000
59    2       14.646462000000       6.917988000000      11.447666000000
60    3       13.640529000000       6.645320000000      11.361469000000
61    1       17.703751000000       2.065221000000      12.360060000000
62    2       18.145407000000       2.357678000000      10.837176000000
63    3       18.988708000000       2.929949000000      10.757098000000
64    1       10.369941000000       7.248870000000      23.103672000000
65    2       10.578937000000       6.200337000000      24.364103000000
66    3       11.121435000000       6.495898000000      25.188707000000
67    1       12.826159000000       1.705005000000      22.611362000000
68    2       12.567444000000       2.751183000000      23.929834000000
69    3       12.010001000000       3.538973000000      23.691568000000
70    1       18.112720000000       2.257506000000      22.350365000000
71    2       17.991594000000       3.683125000000      23.249619000000
72    3       18.760078000000       4.214650000000      23.116541000000
73    1       15.567413000000       7.844889000000      22.845013000000
74    2       16.504410000000       7.009776000000      23.988850000000
75    3       16.367010000000       7.213520000000      24.969831000000
76    1       12.742198000000       9.752435000000      12.616393000000
77    2       12.490304000000      10.963658000000      11.553961000000
78    3       11.600795000000      10.810114000000      11.059202000000
79    1       17.796181000000       9.372091000000      12.583776000000
80    2       17.775795000000      10.828159000000      11.749956000000
81    3       16.881702000000      11.219626000000      11.759937000000
82    1       15.389569000000       0.217817000000      12.882067000000
83    2       15.949699000000      13.429627000000      11.790137000000
84    3       15.615360000000      13.472154000000      10.888566000000
85    1       10.343221000000       0.425609000000      12.864223000000
86    2       10.933668000000      13.570721000000      11.880960000000
87    3       11.814544000000      13.131368000000      12.075747000000
88    1       15.546870000000       0.464963000000      22.875679000000
89    2       15.424957000000      14.250354000000      24.387600000000
90    3       15.451818000000      13.255511000000      24.425306000000
91    1       12.796954000000       9.198969000000      23.022963000000
92    2       12.242437000000       9.993307000000      24.371859000000
93    3       11.238139000000      10.220872000000      24.557196000000
94    1       17.893408000000       9.843827000000      22.624748000000
95    2       17.895370000000      10.251905000000      24.170166000000
96    3       17.114614000000      10.617714000000      24.657305000000
97    1       20.219976000000       5.780022000000      14.876007000000
98    1        2.580906000000       2.192437000000      17.509018000000
99    1        5.237336000000       5.452553000000      14.884932000000
100    1        2.565369000000       3.783061000000      14.953739000000
101    1        7.894863000000       3.737964000000      15.179707000000
102    1        0.171694000000       0.599948000000      17.554829000000
103    1        2.589569000000       3.755986000000      20.167940000000
104    1        0.231409000000       5.694034000000      20.214552000000
105    1        4.969443000000       5.599007000000      20.343855000000
106    1        7.411817000000       3.718763000000      20.399307000000
107    1        7.855228000000       1.870813000000      17.796001000000
108    1        5.032822000000      12.838240000000      15.569844000000
109    1        7.734658000000      11.196084000000      15.601402000000
110    1        0.065363000000      12.484098000000      15.587543000000
111    1        2.679972000000      10.926719000000      15.255865000000
112    1        7.499816000000       9.084443000000      17.791443000000
113    1        5.072210000000       0.232680000000      18.168243000000
114    1        0.052888000000       7.187768000000      17.589190000000
115    1        2.415033000000      11.152368000000      20.030104000000
116    1        0.054450000000      13.072393000000      19.999031000000
117    1        5.057435000000      12.743192000000      20.717236000000
118    1        7.453191000000      10.722797000000      20.481644000000
119    1        2.713696000000       9.092353000000      17.711594000000
120    1        5.067580000000       7.081578000000      17.656940000000
121    1       10.238332000000       5.922801000000      15.178452000000
122    1       15.135089000000       7.306118000000      17.867569000000
123    1       15.179968000000       5.948954000000      15.124232000000
124    1       17.653357000000       4.041589000000      14.682778000000
125    1       12.706929000000       4.084731000000      15.054263000000
126    1       12.574320000000       3.733174000000      20.390409000000
127    1       14.970321000000       5.595306000000      20.536074000000
128    1       17.702755000000       3.991956000000      19.913021000000
129    1       17.806473000000       2.278106000000      17.270790000000
130    1        9.969204000000       5.654896000000      20.412580000000
131    1       12.670227000000       2.351942000000      17.592438000000
132    1       15.291623000000       0.451941000000      17.677361000000
133    1       10.323847000000      13.115938000000      15.550278000000
134    1       12.822482000000      11.268741000000      15.268228000000
135    1       17.695616000000       8.808652000000      18.211100000000
136    1       17.924498000000      10.494152000000      15.427550000000
137    1       15.578556000000      12.648808000000      15.345301000000
138    1       10.182299000000       7.552226000000      17.930323000000
139    1       12.972456000000       9.411638000000      17.771666000000
140    1       12.787860000000      10.966719000000      20.457151000000
141    1       10.072233000000      12.477097000000      20.556932000000
142    1       15.127185000000      13.132914000000      20.314857000000
143    1       17.757914000000      11.435438000000      19.994091000000
144    1       10.387873000000       0.315322000000      18.342720000000
145    2        8.058593000000       2.926543000000      16.588268000000
146    2        8.331573000000       2.769807000000      13.940461000000
147    2        6.249850000000       1.377182000000      12.802383000000
148    2        1.633310000000       0.991963000000      16.924797000000
149    2        8.807494000000       5.120292000000      15.136233000000
150    2        0.077622000000       7.011446000000      15.924611000000
151    2        6.345920000000       4.189044000000      14.963516000000
152    2        0.928708000000       1.013392000000      12.898410000000
153    2        3.720042000000       0.896605000000      12.345464000000
154    2        2.606441000000       2.360029000000      14.208502000000
155    2        3.692116000000       4.864012000000      14.391259000000
156    2        2.902218000000       3.475110000000      16.574892000000
157    2        1.050379000000       4.527476000000      14.967566000000
158    2        4.999595000000       6.087241000000      16.376978000000
159    2        5.728540000000       6.466042000000      13.740386000000
160    2        8.877232000000       0.791946000000      12.046277000000
161    2        3.958289000000       1.453006000000      18.071268000000
162    2       20.046316000000       6.464384000000      13.363027000000
163    2        1.959227000000       2.948697000000      18.904234000000
164    2        1.406096000000       4.656196000000      20.869219000000
165    2        3.778381000000       4.715300000000      19.682350000000
166    2        3.294889000000       2.921306000000      21.454226000000
167    2        0.115652000000       7.166654000000      20.942947000000
168    2        4.557618000000       1.219499000000      23.255762000000
169    2        1.887254000000       0.869820000000      22.621595000000
170    2        4.380296000000       6.744945000000      21.486015000000
171    2        5.740751000000       6.435217000000      19.076735000000
172    2        6.975318000000       2.773129000000      19.064997000000
173    2        8.629679000000       4.824569000000      20.030684000000
174    2        6.090070000000       4.606961000000      21.049124000000
175    2        7.948858000000       2.731260000000      21.555281000000
176    2        7.192020000000       0.579669000000      22.853058000000
177    2        0.541242000000       5.951326000000      18.612864000000
178    2        9.701345000000       1.190534000000      22.751976000000
179    2        9.352835000000       1.539761000000      18.357395000000
180    2       10.141562000000       7.026197000000      19.473816000000
181    2        6.629417000000       0.817860000000      17.598690000000
182    2        7.813938000000       9.966850000000      14.486664000000
183    2       19.836929000000      13.618040000000      16.685102000000
184    2        4.674009000000      13.301320000000      17.100653000000
185    2       20.106470000000      13.050625000000      14.026966000000
186    2        4.145124000000       8.605024000000      13.365364000000
187    2        1.594747000000       8.157060000000      12.501369000000
188    2        1.654882000000      12.104825000000      15.905375000000
189    2        2.198743000000      10.511500000000      13.712791000000
190    2        4.202663000000      11.531394000000      15.045652000000
191    2        2.791573000000       9.494259000000      16.113979000000
192    2        8.707500000000       8.066442000000      17.414055000000
193    2        7.482363000000      10.520228000000      17.065126000000
194    2        6.634892000000      12.409767000000      15.446884000000
195    2        4.821152000000      14.015354000000      14.405238000000
196    2        9.351695000000      11.748137000000      15.444061000000
197    2        6.681450000000       8.576090000000      12.434050000000
198    2        9.252851000000       8.908972000000      12.573799000000
199    2        1.125404000000       8.469558000000      17.954952000000
200    2        2.907819000000      10.409142000000      18.632803000000
201    2        1.057870000000      11.874226000000      19.576794000000
202    2        3.390942000000      12.443582000000      20.432594000000
203    2        2.141620000000       9.986729000000      21.234978000000
204    2        0.377524000000       0.158500000000      19.129089000000
205    2        5.120401000000      13.125713000000      22.290195000000
206    2        5.476324000000      13.944608000000      19.649055000000
207    2        7.470792000000       9.488605000000      19.448229000000
208    2        8.625543000000      11.814338000000      20.012781000000
209    2        5.910398000000      11.377138000000      20.429871000000
210    2        7.759389000000      10.252488000000      22.032242000000
211    2        6.477333000000       7.980503000000      22.768476000000
212    2        4.048393000000       8.950321000000      22.877760000000
213    2        3.630113000000       7.797605000000      18.032791000000
214    2        1.339712000000       8.285868000000      23.150568000000
215    2        6.164456000000       8.224492000000      17.280033000000
216    2        9.171880000000       8.417148000000      23.407875000000
217    2        0.062511000000      13.356649000000      21.659344000000
218    2       11.863338000000       1.050065000000      18.100019000000
219    2       18.546560000000       0.686215000000      12.845970000000
220    2       18.764866000000       5.067361000000      15.296004000000
221    2       19.452372000000       1.951679000000      17.297337000000
222    2       18.181890000000       3.390380000000      13.262154000000
223    2       17.447239000000       2.768810000000      15.743635000000
224    2       11.337137000000       1.709696000000      12.783402000000
225    2       13.772350000000       0.530470000000      12.737382000000
226    2       10.588836000000       6.296250000000      16.812178000000
227    2       13.406588000000       3.018306000000      13.949971000000
228    2       12.194042000000       3.126301000000      16.283981000000
229    2       13.865877000000       5.114738000000      15.579588000000
230    2       11.374238000000       4.905599000000      14.455598000000
231    2       16.078272000000       1.752693000000      12.576232000000
232    2       14.734712000000       7.319793000000      14.207201000000
233    2       15.848413000000       6.572180000000      16.529119000000
234    2       16.300180000000       4.912347000000      14.356448000000
235    2       10.188333000000       7.381305000000      14.380177000000
236    2       13.153437000000       3.397851000000      18.827881000000
237    2       11.220211000000       4.623710000000      20.375776000000
238    2       13.808445000000       4.561981000000      21.063683000000
239    2       12.193326000000       2.421021000000      21.264704000000
240    2       14.430401000000       1.577836000000      22.339312000000
241    2       12.223377000000       0.163010000000      22.865625000000
242    2       15.195064000000       6.821967000000      21.593670000000
243    2       14.539997000000       6.285853000000      19.091734000000
244    2       17.549622000000       3.472745000000      18.364656000000
245    2       18.969746000000       5.001158000000      20.324060000000
246    2       16.375410000000       4.883565000000      20.274782000000
247    2       17.611668000000       2.578688000000      20.778645000000
248    2       19.636662000000       1.616428000000      22.347832000000
249    2       16.859676000000       0.955747000000      17.670544000000
250    2        9.833738000000       6.193966000000      21.954609000000
251    2       17.030575000000       1.189924000000      22.955343000000
252    2       14.260746000000       1.625216000000      17.182625000000
253    2       16.206577000000       8.292696000000      18.707468000000
254    2       16.631626000000       8.218026000000      12.273299000000
255    2       10.325254000000      13.687280000000      17.085501000000
256    2       19.139444000000       8.574914000000      11.943527000000
257    2       18.824432000000       7.624808000000      18.099413000000
258    2       14.349344000000       9.392146000000      12.623914000000
259    2       11.927502000000       8.282454000000      12.363092000000
260    2       12.838626000000      10.711061000000      16.808722000000
261    2       12.208117000000      10.250647000000      14.085622000000
262    2       14.284627000000      11.895313000000      14.738209000000
263    2       11.850680000000      12.754991000000      15.286378000000
264    2       15.691116000000      13.977508000000      14.352519000000
265    2        9.829886000000      14.314912000000      14.429844000000
266    2       17.403076000000       9.551671000000      16.733000000000
267    2       15.324615000000      13.241933000000      16.871395000000
268    2       16.819445000000      11.632871000000      15.071838000000
269    2       18.102812000000       9.463758000000      14.218749000000
270    2       19.359352000000      11.187377000000      15.904828000000
271    2       11.389049000000       8.731403000000      17.869291000000
272    2       13.266835000000       9.911105000000      19.304426000000
273    2       11.232254000000      11.426746000000      20.072716000000
274    2       13.625161000000      12.434249000000      20.429354000000
275    2       13.054974000000      10.347072000000      21.927298000000
276    2       14.264141000000       8.578029000000      23.571041000000
277    2       10.047735000000      12.899302000000      22.125444000000
278    2       11.782526000000       7.901389000000      22.587141000000
279    2       10.340222000000      13.941516000000      19.843302000000
280    2       15.024192000000       0.105195000000      19.288158000000
281    2       15.593684000000      13.531379000000      21.845520000000
282    2       18.289980000000      10.053615000000      19.260046000000
283    2       18.750881000000      12.690216000000      19.608442000000
284    2       16.167719000000      11.931796000000      19.729553000000
285    2       17.969316000000      11.142313000000      21.690437000000
286    2       19.193695000000       8.958144000000      22.307203000000
287    2       16.480658000000       9.045131000000      22.229111000000
288    2       13.819304000000       8.096302000000      17.211355000000
289    3       15.579632000000      12.111859000000      26.862101000000
290    3       14.429213000000      11.391523000000      26.123453000000
291    2       14.821643000000      12.290956000000      26.168764000000
292    3       19.237640000000      13.751211000000      28.060925000000
293    3        0.167494000000      13.039969000000      28.742411000000
294    2       19.624886000000      13.561220000000      28.932411000000
295    3       16.086687000000       6.662865000000      30.106131000000
296    3       16.831207000000       7.786631000000      29.241114000000
297    2       16.466412000000       7.591170000000      30.147997000000
298    3       12.464750000000      11.801107000000       2.900406000000
299    3       11.672899000000      11.382926000000       4.210549000000
300    2       11.737260000000      11.249633000000       3.256925000000
301    3        0.992993000000       2.978508000000      32.255001000000
302    3       19.929642000000       3.625714000000      32.960285000000
303    2        0.534305000000       3.249175000000      33.123577000000
304    3        5.666156000000      11.052321000000      28.859327000000
305    3        6.107195000000      10.664010000000      30.263599000000
306    2        6.334158000000      10.468785000000      29.320440000000
307    3       19.369190000000      13.812322000000      34.887859000000
308    3       17.936651000000      14.040136000000      34.223789000000
309    2       18.518404000000      13.322940000000      34.722801000000
310    3        1.206351000000       0.499084000000      33.724518000000
311    3        0.263062000000       1.636222000000      34.035694000000
312    2        0.597258000000       0.802038000000      34.447762000000
313    3       11.658152000000       6.480721000000      33.825527000000
314    3       10.347988000000       7.065257000000      34.229576000000
315    2       11.037660000000       6.505352000000      34.616379000000
316    3        2.541836000000      12.421957000000       8.017691000000
317    3        4.066687000000      12.627702000000       8.733388000000
318    2        3.481869000000      11.998100000000       8.226243000000
319    3        7.297032000000       8.344900000000       1.614898000000
320    3        5.842202000000       8.200561000000       2.395657000000
321    2        6.302078000000       8.061752000000       1.506525000000
322    3        6.451125000000       8.992952000000       6.528272000000
323    3        4.969930000000       8.405445000000       6.940304000000
324    2        5.855635000000       8.166430000000       6.333761000000
325    3       11.919952000000       8.756845000000       1.821051000000
326    3       11.174688000000       9.388703000000       3.011345000000
327    2       11.156595000000       8.553805000000       2.505421000000
328    3       13.619047000000       5.957675000000      27.603468000000
329    3       14.542666000000       4.939218000000      27.025305000000
330    2       14.597207000000       5.751678000000      27.577658000000
331    3       19.691826000000      11.991122000000       3.386628000000
332    3       19.043810000000      10.566718000000       3.342060000000
333    2       19.326792000000      11.347690000000       2.757966000000
334    3        0.465708000000      10.787740000000       1.712779000000
335    3        1.690562000000      11.709276000000       1.464645000000
336    2        1.335861000000      10.738729000000       1.301215000000
337    3       10.885248000000       3.414851000000      26.975750000000
338    3       11.451658000000       2.722519000000      28.122890000000
339    2       11.634751000000       3.555389000000      27.601175000000
340    3       18.383076000000      13.103320000000      30.130772000000
341    3       17.071680000000      13.780587000000      30.789759000000
342    2       17.465586000000      12.954376000000      30.442913000000
343    3        2.458308000000       6.148586000000      32.822670000000
344    3        1.734887000000       7.106888000000      31.669678000000
345    2        2.462042000000       7.078967000000      32.369484000000
346    3        7.173851000000       3.018020000000       5.905862000000
347    3        6.162228000000       3.593400000000       4.754610000000
348    2        6.989582000000       3.838228000000       5.282797000000
349    3       16.127422000000      14.155134000000       8.948444000000
350    3       15.282664000000      13.119472000000       8.229258000000
351    2       15.272600000000      13.650598000000       9.033997000000
352    3        2.957475000000       8.668883000000       8.098269000000
353    3        3.565706000000      10.194830000000       7.991561000000
354    2        3.506937000000       9.309069000000       7.497913000000
355    3        1.158618000000      11.085424000000       5.185534000000
356    3        1.397505000000      12.495964000000       4.424922000000
357    2        0.749516000000      11.993342000000       4.911906000000
358    3        5.333808000000       2.257881000000      27.598591000000
359    3        5.303304000000       3.472694000000      26.475708000000
360    2        5.504817000000       3.195418000000      27.478050000000
361    3       19.331766000000       4.748337000000      28.025110000000
362    3        0.113282000000       5.678983000000      28.727583000000
363    2       19.809624000000       5.640486000000      27.942614000000
364    3       19.805222000000       5.012764000000       7.660501000000
365    3       19.681065000000       3.520903000000       7.252043000000
366    2       20.167562000000       4.116199000000       7.886736000000
367    3       15.133783000000       5.143850000000      29.027531000000
368    3       16.216646000000       4.435882000000      29.963095000000
369    2       15.454146000000       5.155282000000      29.965004000000
370    3       14.548862000000      11.487048000000       6.207341000000
371    3       13.689777000000      12.703518000000       6.015769000000
372    2       14.626667000000      12.493937000000       6.306446000000
373    3        4.471332000000       0.348171000000      34.224876000000
374    3        4.249231000000      13.160913000000      34.425354000000
375    2        3.807786000000      13.973075000000      34.044781000000
376    3       14.042989000000      13.531521000000      29.936275000000
377    3       13.156528000000       0.532451000000      29.729881000000
378    2       14.027187000000       0.125793000000      29.598249000000
379    3       17.417736000000       6.169313000000       6.290278000000
380    3       16.225172000000       5.143141000000       6.635113000000
381    2       16.407574000000       6.070302000000       6.152388000000
382    3       18.369364000000      12.008822000000      33.508949000000
383    3       17.928232000000      11.892830000000      31.958344000000
384    2       18.095900000000      11.382460000000      32.813053000000
385    3       16.759748000000       4.090570000000      34.936054000000
386    3       16.490362000000       5.705898000000      34.598061000000
387    2       16.546072000000       4.790416000000      34.232792000000
388    3       16.023901000000      11.602294000000       1.585022000000
389    3       14.704472000000      11.791222000000       2.392818000000
390    2       15.194508000000      11.090113000000       1.803327000000
391    3        5.527500000000      11.059517000000      32.738461000000
392    3        5.254842000000       9.643572000000      32.004856000000
393    2        5.050382000000      10.661082000000      31.921776000000
394    3       11.257168000000      13.370275000000       8.795138000000
395    3       12.719547000000      12.871189000000       8.844646000000
396    2       11.784282000000      12.546861000000       8.794126000000
397    3        2.423934000000       5.192452000000       6.210751000000
398    3        1.485000000000       4.733155000000       7.501046000000
399    2        2.325920000000       5.229015000000       7.210596000000
400    3       17.356071000000       9.184636000000       4.125000000000
401    3       18.481295000000       9.255392000000       5.337037000000
402    2       18.360626000000       9.259658000000       4.322296000000
403    3       14.524768000000      11.553464000000      34.286415000000
404    3       13.909115000000      11.461719000000      35.663483000000
405    2       13.718733000000      11.880805000000      34.803951000000
406    3       20.084488000000       5.953884000000      35.657433000000
407    3        0.893077000000       7.133365000000       0.345210000000