# File generated with Atomsk by j281j388 on 2026-06-01 13:01:08

864  atoms
3  atom types

0.000000000000      20.251000000000  xlo xhi
0.000000000000      14.320000000000  ylo yhi
0.000000000000      35.707675000000  zlo zhi

Masses

1   28.08500000             # Si
2   15.99900000             # O
3   1.00800000              # H

Atoms # atomic

1    1        2.347131000000       1.973367000000      12.807911000000
2    2        2.314844000000       3.240213000000      11.702135000000
3    3        1.550037000000       3.374718000000      11.107447000000
4    1       10.399914000000       7.763618000000      12.719781000000
5    2       10.071661000000       6.482196000000      11.672568000000
6    3       10.924688000000       5.967223000000      11.437340000000
7    1        0.131741000000       7.464983000000      12.028366000000
8    2        0.254875000000       6.421543000000      10.666073000000
9    3        1.045482000000       6.745647000000      10.090631000000
10    1        5.380561000000       7.634614000000      12.629087000000
11    2        4.559016000000       7.121646000000      11.309873000000
12    3        5.040007000000       6.677201000000      10.536582000000
13    1        7.611994000000       2.048109000000      12.552349000000
14    2        7.579392000000       3.072737000000      11.193384000000
15    3        6.723850000000       2.981503000000      10.702270000000
16    1       19.984455000000      14.244137000000      12.955165000000
17    2       20.204939000000      13.302874000000      11.529407000000
18    3       20.183943000000      12.321421000000      11.760811000000
19    1       20.204084000000       7.725723000000      22.417955000000
20    2       19.638395000000       6.541022000000      23.552134000000
21    3       18.647493000000       6.533751000000      23.641138000000
22    1        4.865382000000       7.440907000000      22.835382000000
23    2        4.603609000000       6.486836000000      24.198521000000
24    3        4.527869000000       7.057699000000      25.071634000000
25    1        3.053279000000       1.917204000000      22.871889000000
26    2        2.733819000000       3.057489000000      24.066580000000
27    3        2.288861000000       2.692329000000      24.889645000000
28    1        8.207518000000       1.803403000000      22.861465000000
29    2        7.904574000000       2.756143000000      24.234606000000
30    3        6.943892000000       3.102651000000      24.337154000000
31    1        2.746872000000       9.232063000000      12.663351000000
32    2        2.988284000000       9.958530000000      11.178273000000
33    3        3.064618000000      10.935480000000      11.224624000000
34    1        7.893795000000       9.671777000000      12.718355000000
35    2        7.701109000000      10.992152000000      11.685610000000
36    3        6.998332000000      11.603523000000      12.015289000000
37    1        5.018172000000       0.224025000000      12.868062000000
38    2        5.576935000000      13.231463000000      12.049168000000
39    3        5.451600000000      13.235206000000      11.044744000000
40    1        5.608206000000      14.252572000000      23.315771000000
41    2        5.794974000000      13.489177000000      24.863169000000
42    3        6.516980000000      13.836219000000      25.453321000000
43    1        2.417942000000       9.553567000000      22.887081000000
44    2        2.465875000000      10.873052000000      23.958849000000
45    3        3.417470000000      10.921247000000      24.419968000000
46    1        0.375458000000       0.300194000000      22.646612000000
47    2       19.961632000000      14.119546000000      24.081400000000
48    3       19.980730000000      13.119033000000      24.326349000000
49    1        7.665267000000       8.926723000000      23.200602000000
50    2        7.188941000000       9.541773000000      24.634855000000
51    3        7.988948000000      10.068688000000      25.050087000000
52    1       10.594285000000      14.140814000000      23.180937000000
53    2       10.415458000000      13.546904000000      24.744967000000
54    3       11.044239000000      13.960063000000      25.471691000000
55    1       12.936670000000       1.919267000000      12.700343000000
56    2       13.352480000000       2.805011000000      11.348491000000
57    3       13.619820000000       2.216537000000      10.560244000000
58    1       14.914776000000       7.886937000000      12.569193000000
59    2       14.537160000000       6.930751000000      11.323911000000
60    3       13.820111000000       6.241267000000      11.578705000000
61    1       17.756935000000       2.106396000000      12.364167000000
62    2       17.943844000000       2.435107000000      10.725429000000
63    3       18.854673000000       2.795988000000      10.507256000000
64    1       10.342698000000       7.317370000000      23.059462000000
65    2       10.570705000000       6.458139000000      24.468491000000
66    3       11.293652000000       6.346560000000      25.230885000000
67    1       12.784916000000       1.732277000000      22.657528000000
68    2       12.446136000000       2.831694000000      23.951899000000
69    3       11.566360000000       3.224387000000      23.878902000000
70    1       18.117964000000       2.168608000000      22.315096000000
71    2       17.998913000000       3.558611000000      23.332193000000
72    3       18.641565000000       4.325351000000      23.159431000000
73    1       15.598207000000       7.890432000000      22.858822000000
74    2       16.537231000000       7.034877000000      23.913584000000
75    3       16.347178000000       7.271723000000      24.899025000000
76    1       12.610278000000       9.801754000000      12.648405000000
77    2       12.546871000000      10.934127000000      11.487432000000
78    3       11.763391000000      10.788560000000      10.828694000000
79    1       17.830099000000       9.309669000000      12.564179000000
80    2       17.649553000000      10.812893000000      11.801628000000
81    3       17.206345000000      11.513515000000      12.314755000000
82    1       15.441096000000       0.170497000000      12.812452000000
83    2       15.927638000000      13.378825000000      11.715128000000
84    3       15.612629000000      13.539691000000      10.816971000000
85    1       10.236218000000       0.462845000000      12.840567000000
86    2       10.850627000000      13.374275000000      12.047123000000
87    3       11.789514000000      13.149574000000      12.383413000000
88    1       15.603874000000       0.386944000000      22.904398000000
89    2       15.478906000000      14.272776000000      24.527649000000
90    3       15.029449000000      13.530243000000      24.955368000000
91    1       12.813456000000       9.245794000000      23.136023000000
92    2       12.262926000000       9.901745000000      24.586023000000
93    3       11.290054000000      10.106929000000      24.635246000000
94    1       17.771664000000       9.876625000000      22.603947000000
95    2       17.818563000000      10.313992000000      24.306915000000
96    3       17.139057000000      11.046827000000      24.515383000000
97    1       20.160133000000       5.838820000000      14.830877000000
98    1        2.631986000000       2.203058000000      17.664188000000
99    1        5.314626000000       5.380396000000      14.803545000000
100    1        2.585503000000       3.994860000000      15.066126000000
101    1        7.934978000000       3.764675000000      15.134942000000
102    1        0.175625000000       0.606660000000      17.536991000000
103    1        2.578519000000       3.765773000000      20.317036000000
104    1        0.212817000000       5.602068000000      20.028250000000
105    1        5.013206000000       5.631768000000      20.355915000000
106    1        7.389757000000       3.852010000000      20.413275000000
107    1        7.687706000000       1.976488000000      17.848064000000
108    1        5.059545000000      12.829752000000      15.512110000000
109    1        7.694620000000      11.205262000000      15.580956000000
110    1        0.077465000000      12.512210000000      15.616196000000
111    1        2.683422000000      10.849014000000      15.155859000000
112    1        7.526587000000       9.063191000000      17.852003000000
113    1        5.220001000000       0.243041000000      18.095535000000
114    1        0.064281000000       7.190010000000      17.662981000000
115    1        2.352932000000      11.057762000000      20.030457000000
116    1       20.220793000000      13.153078000000      19.992489000000
117    1        5.002007000000      12.664770000000      20.669884000000
118    1        7.482574000000      10.758283000000      20.539312000000
119    1        2.658908000000       9.096337000000      17.656427000000
120    1        5.175340000000       7.080619000000      17.711842000000
121    1       10.310785000000       5.950902000000      15.317505000000
122    1       15.104317000000       7.264533000000      17.868889000000
123    1       15.220335000000       5.966931000000      15.096914000000
124    1       17.684502000000       4.051951000000      14.650383000000
125    1       12.691663000000       4.015030000000      15.063382000000
126    1       12.545131000000       3.787977000000      20.304066000000
127    1       14.998049000000       5.663718000000      20.506065000000
128    1       17.687944000000       4.003695000000      19.868753000000
129    1       17.886082000000       2.293620000000      17.283150000000
130    1        9.934841000000       5.670938000000      20.443411000000
131    1       12.849057000000       2.281020000000      17.541809000000
132    1       15.379024000000       0.396601000000      17.714670000000
133    1       10.213960000000      13.207658000000      15.507104000000
134    1       12.645602000000      11.314401000000      15.258571000000
135    1       17.748129000000       8.826249000000      18.313204000000
136    1       17.914314000000      10.450377000000      15.531866000000
137    1       15.520482000000      12.679141000000      15.355497000000
138    1       10.300194000000       7.470245000000      17.905098000000
139    1       12.888362000000       9.337588000000      17.760386000000
140    1       12.751143000000      11.032301000000      20.420397000000
141    1       10.067113000000      12.518783000000      20.581766000000
142    1       15.177508000000      13.046503000000      20.271677000000
143    1       17.740408000000      11.505088000000      20.068918000000
144    1       10.404888000000       0.456696000000      18.379093000000
145    2        7.954095000000       2.942660000000      16.542240000000
146    2        8.347991000000       2.754716000000      13.846908000000
147    2        6.135926000000       1.475084000000      12.963013000000
148    2        1.624854000000       1.075583000000      16.817844000000
149    2        8.861132000000       5.110199000000      15.280744000000
150    2        0.127035000000       7.009473000000      16.012394000000
151    2        6.320961000000       4.078500000000      14.991284000000
152    2        0.908154000000       1.110303000000      12.771198000000
153    2        3.575728000000       0.898750000000      12.177269000000
154    2        2.708489000000       2.501241000000      14.277429000000
155    2        3.774033000000       4.910048000000      14.425003000000
156    2        2.876135000000       3.508536000000      16.629478000000
157    2        1.147191000000       4.741154000000      14.687651000000
158    2        5.145581000000       6.011841000000      16.390955000000
159    2        5.867719000000       6.409142000000      13.693495000000
160    2        8.776443000000       0.867403000000      12.208869000000
161    2        4.069617000000       1.364069000000      18.141979000000
162    2       19.928825000000       6.465393000000      13.329087000000
163    2        1.946270000000       2.855311000000      19.070354000000
164    2        1.383781000000       4.735205000000      20.894341000000
165    2        3.824034000000       4.743393000000      19.743607000000
166    2        3.327389000000       2.770719000000      21.474701000000
167    2        0.240930000000       7.025835000000      20.913109000000
168    2        4.505563000000       1.161659000000      23.396622000000
169    2        1.994616000000       0.699270000000      22.672043000000
170    2        4.524603000000       6.705908000000      21.400091000000
171    2        5.714972000000       6.349239000000      19.037855000000
172    2        7.014488000000       2.825713000000      19.182909000000
173    2        8.514581000000       4.916454000000      19.823780000000
174    2        6.114431000000       4.588276000000      21.134592000000
175    2        8.015917000000       2.833532000000      21.585270000000
176    2        7.075778000000       0.567967000000      22.766371000000
177    2        0.604186000000       5.790997000000      18.425060000000
178    2        9.818171000000       1.322662000000      22.981207000000
179    2        9.172460000000       1.524393000000      18.405491000000
180    2       10.202126000000       6.904418000000      19.344263000000
181    2        6.661344000000       0.756692000000      17.455595000000
182    2        7.694333000000      10.021519000000      14.392788000000
183    2       19.879965000000      13.599303000000      16.781523000000
184    2        4.734600000000      13.356976000000      17.057573000000
185    2       20.139868000000      13.195997000000      14.185334000000
186    2        4.191840000000       8.722103000000      13.284347000000
187    2        1.565131000000       8.121676000000      12.469265000000
188    2        1.625710000000      11.945452000000      15.755090000000
189    2        2.168150000000      10.412155000000      13.668252000000
190    2        4.144243000000      11.523911000000      15.039175000000
191    2        2.912600000000       9.523665000000      16.134071000000
192    2        8.779947000000       8.084398000000      17.365389000000
193    2        7.457366000000      10.538217000000      17.102137000000
194    2        6.590760000000      12.328343000000      15.239964000000
195    2        4.828951000000      14.063375000000      14.458355000000
196    2        9.206866000000      11.917266000000      15.440454000000
197    2        6.720485000000       8.533803000000      12.409885000000
198    2        9.364491000000       9.066982000000      12.436141000000
199    2        1.069984000000       8.522907000000      17.937229000000
200    2        2.882708000000      10.396554000000      18.627865000000
201    2        0.936854000000      11.843511000000      19.756956000000
202    2        3.449916000000      12.203753000000      20.485802000000
203    2        2.047234000000      10.091163000000      21.322529000000
204    2        0.252652000000       0.306984000000      19.218201000000
205    2        5.151827000000      13.020749000000      22.317539000000
206    2        5.452312000000      13.894800000000      19.711210000000
207    2        7.535213000000       9.360241000000      19.533758000000
208    2        8.584742000000      11.905123000000      20.076475000000
209    2        5.930544000000      11.244158000000      20.400345000000
210    2        7.789920000000      10.209505000000      22.080706000000
211    2        6.539916000000       7.819176000000      22.714735000000
212    2        3.915058000000       8.809426000000      22.993397000000
213    2        3.681911000000       7.820564000000      18.060410000000
214    2        1.308081000000       8.255599000000      23.142645000000
215    2        6.134060000000       8.343070000000      17.428150000000
216    2        9.250766000000       8.520092000000      23.299152000000
217    2        0.184823000000      13.426759000000      21.559526000000
218    2       11.852046000000       1.179908000000      18.312189000000
219    2       18.497721000000       0.765376000000      13.011553000000
220    2       18.854759000000       4.952840000000      15.370536000000
221    2       19.463486000000       1.972594000000      17.449207000000
222    2       18.168629000000       3.413605000000      13.186745000000
223    2       17.387894000000       2.774692000000      15.747952000000
224    2       11.299852000000       1.687936000000      12.753972000000
225    2       13.748350000000       0.458418000000      12.672177000000
226    2       10.844740000000       6.402876000000      16.817333000000
227    2       13.300507000000       2.881343000000      14.035291000000
228    2       12.149918000000       3.072496000000      16.283051000000
229    2       13.819139000000       5.144641000000      15.427482000000
230    2       11.461526000000       5.009688000000      14.538397000000
231    2       16.135199000000       1.708679000000      12.511613000000
232    2       14.714065000000       7.185503000000      14.013556000000
233    2       15.792349000000       6.632468000000      16.549690000000
234    2       16.324028000000       5.006797000000      14.336471000000
235    2       10.242236000000       7.311998000000      14.307446000000
236    2       13.085404000000       3.400114000000      18.814220000000
237    2       11.151311000000       4.588233000000      20.173651000000
238    2       13.734343000000       4.671123000000      21.136681000000
239    2       12.184968000000       2.369409000000      21.207714000000
240    2       14.476586000000       1.503980000000      22.523603000000
241    2       12.187163000000       0.216925000000      22.918707000000
242    2       15.171462000000       6.831030000000      21.642498000000
243    2       14.455994000000       6.210038000000      18.978727000000
244    2       17.469261000000       3.626782000000      18.274063000000
245    2       19.021786000000       4.814887000000      20.237270000000
246    2       16.437740000000       4.871941000000      20.379120000000
247    2       17.823784000000       2.600692000000      20.747179000000
248    2       19.678305000000       1.652052000000      22.390629000000
249    2       16.932274000000       1.015080000000      17.661520000000
250    2        9.705810000000       6.267729000000      21.933794000000
251    2       16.981531000000       1.273271000000      23.025766000000
252    2       14.241182000000       1.500638000000      17.132864000000
253    2       16.281136000000       8.190637000000      18.611769000000
254    2       16.551807000000       8.277435000000      12.279215000000
255    2       10.290488000000      13.647121000000      17.084515000000
256    2       19.175827000000       8.592095000000      11.807777000000
257    2       18.714140000000       7.436599000000      18.124323000000
258    2       14.295341000000       9.402542000000      12.577523000000
259    2       11.937953000000       8.332888000000      12.405704000000
260    2       12.774237000000      10.745831000000      16.773157000000
261    2       12.074299000000      10.157956000000      14.211432000000
262    2       14.162972000000      11.773364000000      14.892198000000
263    2       11.762276000000      12.655245000000      15.065410000000
264    2       15.855243000000      13.914711000000      14.352952000000
265    2        9.968314000000       0.205543000000      14.499825000000
266    2       17.563011000000       9.516134000000      16.781326000000
267    2       15.388386000000      13.271478000000      16.893303000000
268    2       16.831320000000      11.656374000000      15.098893000000
269    2       18.090736000000       9.440960000000      14.194605000000
270    2       19.296974000000      11.269848000000      15.934969000000
271    2       11.270385000000       8.886025000000      17.725891000000
272    2       13.295231000000       9.980856000000      19.249662000000
273    2       11.145424000000      11.313310000000      20.232468000000
274    2       13.627338000000      12.405915000000      20.256672000000
275    2       12.978662000000      10.366915000000      21.970583000000
276    2       14.303276000000       8.634568000000      23.593245000000
277    2       10.083806000000      12.830679000000      22.250204000000
278    2       11.731967000000       8.131870000000      22.508791000000
279    2       10.307067000000      13.974807000000      19.872324000000
280    2       14.961435000000       0.077675000000      19.302042000000
281    2       15.622169000000      13.519762000000      21.780626000000
282    2       18.190414000000      10.024868000000      19.403522000000
283    2       18.658623000000      12.826453000000      19.577829000000
284    2       16.203884000000      11.974278000000      19.575670000000
285    2       17.820477000000      11.297120000000      21.686768000000
286    2       19.105938000000       8.908878000000      22.415220000000
287    2       16.404417000000       9.140756000000      22.030050000000
288    2       13.913072000000       8.225822000000      17.276669000000
289    3       15.514040000000      12.374201000000      26.764706000000
290    3       14.517273000000      11.281830000000      26.261299000000
291    2       14.713435000000      12.262997000000      26.155224000000
292    3       19.181726000000      13.494613000000      27.767893000000
293    3       20.065258000000      12.621951000000      28.644432000000
294    2       19.485529000000      13.381306000000      28.671036000000
295    3       16.127142000000       6.826806000000      29.747622000000
296    3       17.263617000000       7.976322000000      29.517773000000
297    2       16.592167000000       7.613857000000      30.148949000000
298    3       12.712777000000      11.388309000000       3.124206000000
299    3       11.646622000000      11.440502000000       4.354234000000
300    2       11.759559000000      11.183051000000       3.435737000000
301    3        1.063834000000       2.926249000000      32.397526000000
302    3       19.993977000000       3.741571000000      32.837082000000
303    2        0.513053000000       3.264429000000      33.148209000000
304    3        5.668797000000      11.042302000000      28.898781000000
305    3        5.831749000000      10.474312000000      30.321115000000
306    2        6.268377000000      10.431292000000      29.420338000000
307    3       19.130228000000      14.290450000000      34.877987000000
308    3       17.574253000000      14.207321000000      34.370647000000
309    2       18.365866000000      13.665620000000      34.754910000000
310    3        1.027837000000       0.146058000000      33.565586000000
311    3        0.509936000000       1.457551000000      34.092232000000
312    2        0.543808000000       0.522953000000      34.334045000000
313    3       11.601287000000       6.566974000000      33.843742000000
314    3       10.367036000000       7.242663000000      34.428318000000
315    2       10.999511000000       6.496953000000      34.647694000000
316    3        2.594626000000      12.379511000000       8.063656000000
317    3        4.064534000000      12.625733000000       8.863619000000
318    2        3.553780000000      12.049860000000       8.246427000000
319    3        7.132543000000       8.529894000000       1.486763000000
320    3        5.693636000000       8.214176000000       2.168190000000
321    2        6.213207000000       8.183249000000       1.287195000000
322    3        6.579885000000       9.055326000000       6.668931000000
323    3        4.994228000000       8.795644000000       6.904666000000
324    2        5.900492000000       8.309402000000       6.467566000000
325    3       11.658412000000       8.529863000000       1.477762000000
326    3       11.407457000000       9.468643000000       2.712152000000
327    2       11.141179000000       8.587430000000       2.377740000000
328    3       13.589475000000       5.787506000000      27.351765000000
329    3       14.601027000000       4.864187000000      26.823204000000
330    2       14.562556000000       5.566459000000      27.503958000000
331    3       19.919317000000      11.641737000000       3.625898000000
332    3       19.114529000000      10.397324000000       3.112796000000
333    2       19.430079000000      11.302776000000       2.845679000000
334    3        0.499214000000      10.878035000000       1.945235000000
335    3        1.348599000000      11.654938000000       0.912722000000
336    2        1.290421000000      10.765420000000       1.373726000000
337    3       10.628543000000       3.628780000000      27.371235000000
338    3       11.642595000000       3.037667000000      28.361240000000
339    2       11.573386000000       3.746504000000      27.659634000000
340    3       18.224648000000      13.315725000000      29.976665000000
341    3       16.944271000000      13.675927000000      30.854321000000
342    2       17.500963000000      12.914211000000      30.533045000000
343    3        2.265964000000       6.256238000000      32.965305000000
344    3        1.813249000000       6.799562000000      31.479233000000
345    2        2.382714000000       7.007511000000      32.302021000000
346    3        7.116160000000       3.235066000000       6.204006000000
347    3        6.022378000000       3.699636000000       5.034206000000
348    2        6.972550000000       3.907883000000       5.428835000000
349    3       15.966709000000      14.305094000000       8.525249000000
350    3       14.931592000000      13.144115000000       8.256786000000
351    2       15.162799000000      13.792018000000       8.924053000000
352    3        3.042561000000       8.944296000000       8.337757000000
353    3        3.694348000000      10.442016000000       7.964540000000
354    2        3.432517000000       9.534305000000       7.588025000000
355    3        1.154987000000      11.065237000000       5.314115000000
356    3        1.462132000000      12.536730000000       4.576382000000
357    2        0.762860000000      11.962977000000       4.999128000000
358    3        5.174426000000       2.434319000000      27.776466000000
359    3        5.443918000000       3.400324000000      26.457886000000
360    2        5.579181000000       3.268611000000      27.498962000000
361    3       19.190105000000       4.883770000000      28.002260000000
362    3       20.045979000000       5.758522000000      28.909176000000
363    2       19.783344000000       5.651349000000      27.977444000000
364    3       19.845022000000       5.208886000000       7.546805000000
365    3       19.550138000000       3.597282000000       7.326352000000
366    2       20.152861000000       4.246319000000       7.890028000000
367    3       14.983001000000       5.224376000000      29.110401000000
368    3       16.141548000000       4.419125000000      29.839983000000
369    2       15.462828000000       5.171350000000      29.989336000000
370    3       14.925907000000      11.468673000000       6.263467000000
371    3       13.781091000000      12.487072000000       6.296952000000
372    2       14.785360000000      12.461295000000       6.334461000000
373    3        4.603183000000       0.270441000000      33.925598000000
374    3        4.453352000000      13.130771000000      34.146454000000
375    2        3.896079000000      13.931167000000      33.988480000000
376    3       14.016764000000      13.551951000000      29.834520000000
377    3       13.153249000000       0.639117000000      29.756056000000
378    2       14.012111000000       0.168759000000      29.583729000000
379    3       17.369383000000       6.350337000000       6.125171000000
380    3       16.199062000000       5.349983000000       6.624104000000
381    2       16.359077000000       6.236253000000       6.099280000000
382    3       18.150812000000      12.018034000000      33.540928000000
383    3       17.819214000000      11.961525000000      31.949568000000
384    2       18.104807000000      11.418664000000      32.788574000000
385    3       16.826345000000       4.066224000000      34.752106000000
386    3       16.805044000000       5.722557000000      34.695160000000
387    2       16.659750000000       4.857406000000      34.194355000000
388    3       16.189062000000      11.305815000000       1.391227000000
389    3       15.170751000000      11.749506000000       2.429213000000
390    2       15.274958000000      11.079780000000       1.717763000000
391    3        5.002286000000      11.086005000000      32.919693000000
392    3        4.965251000000       9.669543000000      32.271088000000
393    2        4.885541000000      10.662217000000      32.006874000000
394    3       11.315458000000      13.353284000000       9.027286000000
395    3       12.609607000000      12.547724000000       9.049001000000
396    2       11.677715000000      12.515933000000       8.713100000000
397    3        2.433984000000       5.484204000000       6.259403000000
398    3        1.752365000000       4.503733000000       7.466809000000
399    2        2.469846000000       5.177230000000       7.207537000000
400    3       17.389158000000       9.312905000000       4.226238000000
401    3       18.569845000000       9.216801000000       5.368982000000
402    2       18.406782000000       9.179932000000       4.344049000000
403    3       14.552131000000      11.655720000000      34.180813000000
404    3       14.188370000000      11.637088000000       0.012546000000
405    2       13.800200000000      11.932424000000      34.847519000000
406    3        0.136178000000       5.974946000000       0.088646000000
407    3        1.169234000000       7.184675000000       0.196788000000