# File generated with Atomsk by j281j388 on 2026-06-04 11:47:49

864  atoms
3  atom types

0.000000000000      20.251000000000  xlo xhi
0.000000000000      14.320000000000  ylo yhi
0.000000000000      35.707675000000  zlo zhi

Masses

1   28.08500000             # Si
2   15.99900000             # O
3   1.00800000              # H

Atoms # atomic

1    1        2.934884000000       1.808480000000      12.665088000000
2    2        2.691505000000       3.006238000000      11.576015000000
3    3        1.889239000000       3.364393000000      11.028305000000
4    1       10.064349000000       7.821923000000      13.842938000000
5    2       10.126792000000       6.266436000000      13.144330000000
6    3       10.985791000000       6.163625000000      12.627755000000
7    1       20.194630000000       7.396690000000      12.375839000000
8    2        0.308338000000       6.829699000000      10.906007000000
9    3        1.219239000000       6.995261000000      10.515613000000
10    1        5.563323000000       8.139651000000      13.069157000000
11    2        6.044203000000       7.559937000000      11.590193000000
12    3        6.764965000000       6.850872000000      11.553944000000
13    1        7.792132000000       2.556682000000      13.074801000000
14    2        7.440537000000       3.307372000000      11.655149000000
15    3        6.521932000000       3.306238000000      11.258208000000
16    1        0.029474000000       0.518507000000      12.391623000000
17    2       20.156898000000      13.522035000000      11.413529000000
18    3       19.323620000000      13.046035000000      11.505704000000
19    1       19.932781000000       7.862211000000      22.558187000000
20    2       19.280224000000       6.789772000000      23.688316000000
21    3       18.323048000000       7.003772000000      23.895363000000
22    1        4.754734000000       7.525364000000      22.664799000000
23    2        4.491618000000       6.983150000000      24.193693000000
24    3        4.154545000000       7.555870000000      24.973515000000
25    1        2.567291000000       1.900130000000      22.711660000000
26    2        2.770075000000       3.052575000000      23.897451000000
27    3        2.883652000000       2.501188000000      24.778790000000
28    1        7.221753000000       2.270224000000      22.790100000000
29    2        7.023939000000       3.175669000000      24.171268000000
30    3        6.165147000000       3.778709000000      24.289436000000
31    1        2.448859000000       9.004492000000      12.582788000000
32    2        2.420547000000       9.255325000000      10.917517000000
33    3        1.871081000000      10.062212000000      10.802711000000
34    1        7.854441000000      10.039581000000      13.494318000000
35    2        8.164938000000      11.236009000000      12.415436000000
36    3        7.417232000000      11.854055000000      12.248338000000
37    1        5.597035000000       0.290041000000      13.056636000000
38    2        6.199628000000      13.416186000000      12.084136000000
39    3        5.840970000000      13.455967000000      11.100308000000
40    1        5.075271000000       0.022217000000      23.061865000000
41    2        5.003373000000      13.694858000000      24.581503000000
42    3        5.978390000000      13.795343000000      25.046261000000
43    1        2.237590000000       9.383558000000      22.586998000000
44    2        2.416172000000      10.543616000000      23.780304000000
45    3        3.283122000000      10.772767000000      24.241283000000
46    1       20.090670000000       0.600973000000      22.569935000000
47    2       19.380604000000      13.745452000000      23.504530000000
48    3       19.921894000000      13.052818000000      23.886110000000
49    1        7.372441000000       9.323837000000      23.384750000000
50    2        6.787646000000      10.082211000000      24.768120000000
51    3        7.531224000000      10.214378000000      25.383097000000
52    1        9.990558000000       0.659379000000      22.957993000000
53    2        9.658192000000       0.111192000000      24.501591000000
54    3       10.441417000000       0.192188000000      25.203529000000
55    1       12.779384000000       2.622593000000      13.004433000000
56    2       12.274019000000       2.836011000000      11.431364000000
57    3       12.998549000000       2.493121000000      10.766798000000
58    1       15.083513000000       7.470252000000      12.731487000000
59    2       14.611351000000       6.662528000000      11.426549000000
60    3       13.659918000000       6.208692000000      11.443489000000
61    1       18.079458000000       2.572129000000      12.020866000000
62    2       17.914095000000       3.704721000000      10.713165000000
63    3       18.824841000000       4.047046000000      10.538593000000
64    1        9.980255000000       7.501776000000      23.739365000000
65    2       10.365711000000       7.118678000000      25.301434000000
66    3       11.270583000000       6.690320000000      25.585629000000
67    1       12.757065000000       2.171254000000      22.641895000000
68    2       12.971039000000       3.223807000000      23.838547000000
69    3       12.244175000000       3.328938000000      24.532928000000
70    1       17.855024000000       2.768014000000      22.837646000000
71    2       17.886707000000       3.989238000000      23.968857000000
72    3       18.492323000000       4.729276000000      23.825726000000
73    1       15.487592000000       7.850837000000      23.016932000000
74    2       16.537271000000       7.284421000000      24.198317000000
75    3       16.194019000000       7.329207000000      25.203869000000
76    1       12.684689000000       9.644905000000      13.471654000000
77    2       12.487137000000      10.923583000000      12.379593000000
78    3       12.023687000000      10.728003000000      11.569189000000
79    1       17.517221000000       9.261632000000      12.379716000000
80    2       17.512556000000      10.148265000000      10.922817000000
81    3       16.930851000000      10.901223000000      10.966429000000
82    1       15.427726000000       1.010469000000      12.742681000000
83    2       14.691703000000       0.176931000000      11.505224000000
84    3       15.398787000000      13.876770000000      11.017473000000
85    1       10.376997000000       0.568762000000      13.179338000000
86    2       10.522291000000      14.035630000000      11.717086000000
87    3       10.277576000000      13.120565000000      11.835174000000
88    1       15.593934000000       0.718783000000      22.774485000000
89    2       15.344458000000      13.921309000000      24.000635000000
90    3       15.051463000000      13.090276000000      23.555202000000
91    1       12.600717000000       9.081075000000      23.372005000000
92    2       12.205698000000       9.728643000000      24.844286000000
93    3       11.385118000000      10.407987000000      24.683891000000
94    1       17.604059000000      10.078062000000      22.607920000000
95    2       18.071030000000      10.914557000000      23.985270000000
96    3       17.498392000000      11.666961000000      24.323088000000
97    1        0.221657000000       5.467012000000      14.715875000000
98    1        2.312876000000       2.452847000000      17.359859000000
99    1        5.267449000000       6.088862000000      15.513628000000
100    1        2.930479000000       4.074734000000      14.892220000000
101    1        7.857010000000       4.173211000000      15.797069000000
102    1        0.092998000000       0.455817000000      17.378035000000
103    1        1.975551000000       3.770557000000      20.231268000000
104    1       19.945641000000       5.815648000000      20.199034000000
105    1        4.464921000000       5.764808000000      19.986689000000
106    1        6.898827000000       3.812792000000      20.012094000000
107    1        7.248529000000       1.463371000000      17.549936000000
108    1        4.683939000000      12.834023000000      15.578342000000
109    1        7.590744000000      11.523420000000      16.213930000000
110    1       19.829531000000      13.223196000000      14.744672000000
111    1        1.982936000000      11.340988000000      14.582903000000
112    1        7.430529000000       9.187479000000      18.441862000000
113    1        4.568690000000       0.168553000000      17.924967000000
114    1       20.181993000000       7.183300000000      17.409723000000
115    1        2.110360000000      11.224684000000      20.081152000000
116    1        0.322134000000      13.461095000000      19.934477000000
117    1        4.959771000000      12.522026000000      20.424765000000
118    1        7.870793000000      11.022140000000      20.677113000000
119    1        1.539504000000       9.926925000000      17.284962000000
120    1        4.322333000000       8.118473000000      17.924469000000
121    1       10.223475000000       6.246033000000      16.539122000000
122    1       15.238754000000       7.763256000000      18.005104000000
123    1       15.532444000000       5.763888000000      15.410689000000
124    1       18.092731000000       3.690207000000      15.068286000000
125    1       12.635949000000       4.541708000000      15.489208000000
126    1       12.230447000000       4.555680000000      20.662678000000
127    1       14.859028000000       5.999820000000      20.437485000000
128    1       17.397942000000       4.223131000000      20.159954000000
129    1       17.869492000000       2.354020000000      17.851088000000
130    1        9.312398000000       5.744581000000      21.290930000000
131    1       12.433584000000       3.121275000000      18.151701000000
132    1       15.026663000000       1.148283000000      18.017868000000
133    1       10.137811000000      13.231647000000      15.922209000000
134    1       12.912734000000      11.740265000000      15.885668000000
135    1       17.769270000000       9.101699000000      17.646709000000
136    1       17.268526000000      11.078048000000      14.924506000000
137    1       15.105733000000      13.582478000000      15.280898000000
138    1        9.777714000000       7.688427000000      19.240910000000
139    1       13.836027000000      10.472674000000      18.343851000000
140    1       13.403863000000      11.437223000000      21.084188000000
141    1       10.420837000000      12.835587000000      20.663706000000
142    1       15.559012000000      13.508850000000      20.312582000000
143    1       18.021437000000      11.511076000000      19.828093000000
144    1       10.313938000000       0.662041000000      18.296747000000
145    2        7.538821000000       2.638757000000      16.384769000000
146    2        8.029617000000       3.763329000000      14.207882000000
147    2        6.821239000000       1.319423000000      13.533808000000
148    2        1.171447000000       1.504176000000      16.617393000000
149    2        9.190601000000       4.944546000000      16.436274000000
150    2        0.418837000000       6.626869000000      15.924489000000
151    2        6.524918000000       5.198410000000      16.124149000000
152    2        1.659193000000       0.774463000000      12.578693000000
153    2        4.311264000000       0.974655000000      12.219279000000
154    2        3.298915000000       2.535269000000      14.200624000000
155    2        4.244614000000       5.123844000000      14.631573000000
156    2        2.581381000000       3.811011000000      16.499331000000
157    2        1.699689000000       4.925166000000      14.178239000000
158    2        4.407393000000       6.935102000000      16.619234000000
159    2        5.927436000000       7.174057000000      14.359494000000
160    2        9.266426000000       1.741341000000      13.064892000000
161    2        3.677500000000       1.518458000000      17.717979000000
162    2       19.702389000000       6.099088000000      13.341961000000
163    2        1.642139000000       2.944603000000      18.811808000000
164    2        0.597544000000       4.533833000000      20.826338000000
165    2        3.187120000000       4.785330000000      19.893856000000
166    2        2.275959000000       2.472787000000      21.233358000000
167    2        0.012178000000       7.215168000000      21.024536000000
168    2        3.943805000000       1.053397000000      22.591564000000
169    2        1.427682000000       0.774465000000      23.030743000000
170    2        4.779204000000       6.268385000000      21.568077000000
171    2        3.993895000000       7.184612000000      19.210884000000
172    2        6.864038000000       2.542510000000      18.944698000000
173    2        8.151462000000       4.959097000000      20.395128000000
174    2        5.715065000000       4.818669000000      19.405813000000
175    2        6.538167000000       3.084774000000      21.497591000000
176    2        6.514314000000       0.747751000000      22.833279000000
177    2        0.095207000000       6.048228000000      18.615946000000
178    2        8.909803000000       1.909307000000      22.542706000000
179    2        8.636416000000       0.713497000000      18.034559000000
180    2        9.290678000000       7.277936000000      20.729113000000
181    2        6.121887000000       0.384375000000      17.277714000000
182    2        8.262239000000      10.621206000000      14.994147000000
183    2       19.865208000000      13.718204000000      16.288214000000
184    2        3.982849000000      13.308228000000      16.935158000000
185    2       19.465965000000       0.208637000000      13.748273000000
186    2        3.914754000000       8.380990000000      12.973657000000
187    2        1.366280000000       7.904044000000      13.096080000000
188    2        1.086363000000      12.701002000000      14.172535000000
189    2        1.980088000000      10.501028000000      13.189841000000
190    2        3.502392000000      11.795360000000      15.051020000000
191    2        1.152685000000      10.534346000000      15.806226000000
192    2        8.490452000000       7.917980000000      18.157396000000
193    2        7.605683000000      10.636381000000      17.625372000000
194    2        6.080759000000      11.937276000000      15.827675000000
195    2        5.029532000000      14.084438000000      14.513910000000
196    2        8.653494000000      12.738299000000      16.463240000000
197    2        6.282958000000       9.656290000000      13.456785000000
198    2        8.821768000000       8.688377000000      13.260473000000
199    2        0.861215000000       8.511474000000      17.729975000000
200    2        1.597453000000      10.991924000000      18.538637000000
201    2        1.499835000000      12.596287000000      20.727842000000
202    2        3.781581000000      11.406511000000      20.060486000000
203    2        1.780859000000       9.957363000000      21.114695000000
204    2        1.080364000000      14.099100000000      18.578018000000
205    2        4.816143000000      12.948712000000      22.074316000000
206    2        4.741346000000      13.924881000000      19.444633000000
207    2        8.011702000000       9.521101000000      19.949772000000
208    2        9.225895000000      11.749495000000      20.328411000000
209    2        6.538890000000      12.020015000000      20.148895000000
210    2        7.581969000000      10.550155000000      22.286167000000
211    2        6.184661000000       8.365479000000      22.594948000000
212    2        3.637012000000       8.610788000000      22.147684000000
213    2        3.252154000000       9.302529000000      17.377218000000
214    2        1.078742000000       8.362588000000      23.328651000000
215    2        5.881478000000       8.686842000000      18.276588000000
216    2        8.676012000000       8.472747000000      23.703491000000
217    2       19.891499000000       0.195546000000      20.951611000000
218    2       11.200683000000       2.007715000000      18.706959000000
219    2       19.582439000000       1.792511000000      11.670887000000
220    2       19.639482000000       4.210255000000      15.363452000000
221    2       19.096773000000       1.272464000000      18.041090000000
222    2       18.060488000000       3.057733000000      13.577511000000
223    2       17.787189000000       2.475426000000      16.157104000000
224    2       11.888160000000       1.341113000000      13.478628000000
225    2       14.470368000000       2.351830000000      12.949754000000
226    2       10.554831000000       6.709177000000      18.208536000000
227    2       12.405428000000       4.021619000000      13.882900000000
228    2       12.042166000000       3.396222000000      16.579506000000
229    2       14.201711000000       4.797137000000      15.817948000000
230    2       11.809263000000       5.922629000000      15.960448000000
231    2       16.828346000000       1.455812000000      11.914703000000
232    2       15.041028000000       6.555555000000      14.055794000000
233    2       15.705327000000       6.952388000000      16.594130000000
234    2       17.052429000000       4.996948000000      15.334099000000
235    2        9.744452000000       7.534987000000      15.535243000000
236    2       12.469447000000       4.516795000000      18.998846000000
237    2       10.755591000000       5.093643000000      20.938822000000
238    2       13.475166000000       5.540625000000      21.219841000000
239    2       12.397861000000       3.018111000000      21.204748000000
240    2       14.124827000000       1.290998000000      22.354656000000
241    2       11.542669000000       1.088745000000      22.917160000000
242    2       15.598606000000       6.846454000000      21.688972000000
243    2       14.373419000000       6.841460000000      19.058243000000
244    2       18.133175000000       3.769099000000      18.697277000000
245    2       18.415480000000       5.420592000000      20.622320000000
246    2       15.832030000000       4.738315000000      19.916920000000
247    2       17.430033000000       2.955863000000      21.214586000000
248    2       19.350780000000       2.059378000000      22.879354000000
249    2       16.481676000000       1.718153000000      18.404772000000
250    2        9.388135000000       6.103334000000      22.967987000000
251    2       16.657753000000       1.782848000000      23.494297000000
252    2       13.836069000000       2.219305000000      18.121414000000
253    2       16.636787000000       8.352965000000      18.696476000000
254    2       16.577412000000       7.883826000000      12.287447000000
255    2       10.855104000000       0.096405000000      16.829506000000
256    2       19.076286000000       8.701326000000      12.450703000000
257    2       18.677532000000       7.784216000000      17.226580000000
258    2       14.006997000000       8.753899000000      12.938784000000
259    2       11.444248000000       8.583732000000      13.478059000000
260    2       13.818985000000      11.770782000000      17.264755000000
261    2       13.077793000000      10.338092000000      15.031713000000
262    2       13.564921000000      13.076567000000      15.055663000000
263    2       11.209238000000      11.994006000000      16.103525000000
264    2       15.805190000000       0.242493000000      14.133098000000
265    2       10.009227000000      13.738580000000      14.345150000000
266    2       17.518681000000      10.061433000000      16.233580000000
267    2       15.155749000000       0.325037000000      16.538809000000
268    2       16.042635000000      12.194523000000      15.377534000000
269    2       16.851948000000      10.231718000000      13.546312000000
270    2       18.690514000000      12.020734000000      14.479554000000
271    2       12.342640000000      10.054728000000      18.531349000000
272    2       14.455284000000      10.761910000000      19.928759000000
273    2       11.852009000000      12.111190000000      20.959139000000
274    2       14.470370000000      12.749650000000      21.442015000000
275    2       13.213563000000      10.333426000000      22.332058000000
276    2       13.878405000000       7.989762000000      23.485771000000
277    2        9.805424000000      13.652917000000      21.967194000000
278    2       11.206968000000       8.322843000000      22.827698000000
279    2       10.619795000000      13.752708000000      19.315634000000
280    2       14.689121000000       0.093419000000      19.262489000000
281    2       16.409899000000       0.160656000000      21.393734000000
282    2       18.381346000000      10.267231000000      18.760986000000
283    2       19.400373000000      12.411152000000      19.529034000000
284    2       16.654566000000      12.515588000000      19.449257000000
285    2       17.711494000000      11.133929000000      21.383265000000
286    2       18.897562000000       9.087741000000      22.378946000000
287    2       16.174877000000       9.356215000000      22.598400000000
288    2       14.633016000000       9.218070000000      17.485004000000
289    3       15.339038000000      11.992922000000      26.993614000000
290    3       14.375217000000      10.877583000000      26.911825000000
291    2       14.457994000000      11.806684000000      26.668823000000
292    3       19.924578000000      13.500093000000      27.141451000000
293    3        0.715677000000      12.543158000000      27.889076000000
294    2        0.181284000000      13.362323000000      27.994770000000
295    3       16.568821000000       6.769186000000      29.913563000000
296    3       17.195986000000       8.203871000000      29.311052000000
297    2       16.786421000000       7.723405000000      30.077061000000
298    3       13.140835000000      11.345186000000       3.019528000000
299    3       11.863998000000      11.250041000000       4.012566000000
300    2       12.208303000000      10.947908000000       3.134509000000
301    3        1.469408000000       2.296338000000      31.867195000000
302    3        0.088895000000       3.006179000000      32.486618000000
303    2        0.934597000000       2.487892000000      32.678989000000
304    3        5.087963000000      10.856386000000      28.586510000000
305    3        5.673070000000      10.435122000000      29.908215000000
306    2        5.933888000000      10.373649000000      28.940290000000
307    3       19.947378000000      13.344672000000      33.806545000000
308    3       18.434084000000      13.747923000000      33.731766000000
309    2       19.047050000000      12.968373000000      33.841904000000
310    3        1.976659000000      13.796103000000      33.409004000000
311    3        1.265352000000       0.798297000000      33.895222000000
312    2        1.468091000000      14.185389000000      34.195099000000
313    3       11.621779000000       6.513184000000      33.197590000000
314    3       10.403455000000       7.382126000000      33.711899000000
315    2       11.092448000000       6.700871000000      34.028538000000
316    3        3.163014000000      11.942711000000       7.914290000000
317    3        4.631817000000      11.843597000000       8.743266000000
318    2        4.026370000000      11.446982000000       8.022036000000
319    3        6.832934000000       7.744871000000       1.563299000000
320    3        5.657157000000       7.335993000000       2.460023000000
321    2        6.013474000000       7.204378000000       1.524615000000
322    3        6.441400000000       8.683880000000       6.749074000000
323    3        4.995010000000       8.241907000000       7.004505000000
324    2        5.821757000000       7.972230000000       6.480251000000
325    3       11.402995000000       9.051796000000       1.345762000000
326    3       11.238602000000       9.816569000000       2.623516000000
327    2       10.855327000000       9.004748000000       2.175882000000
328    3       14.043200000000       5.614971000000      27.451090000000
329    3       15.045167000000       4.579015000000      26.691530000000
330    2       14.929028000000       5.205892000000      27.529385000000
331    3        0.400925000000      10.339474000000       3.107213000000
332    3       19.388666000000       9.474277000000       2.658437000000
333    2       19.874077000000      10.344890000000       2.427366000000
334    3        0.420496000000      10.426484000000       0.855708000000
335    3        1.552727000000      11.405811000000       0.312565000000
336    2        1.155981000000      10.506508000000       0.195647000000
337    3       10.300842000000       3.766482000000      25.721575000000
338    3       11.074405000000       2.529819000000      26.194010000000
339    2       11.284701000000       3.432497000000      25.850061000000
340    3       19.238058000000      12.949875000000      29.391775000000
341    3       17.916946000000      13.690484000000      29.963264000000
342    2       18.316576000000      12.780098000000      29.742577000000
343    3        2.013996000000       5.802462000000      33.591908000000
344    3        1.964765000000       6.592382000000      32.183460000000
345    2        2.360112000000       6.631852000000      33.095219000000
346    3        7.510026000000       2.996671000000       6.512286000000
347    3        6.539256000000       3.085862000000       5.274416000000
348    2        7.304305000000       3.557318000000       5.706017000000
349    3       17.484503000000      13.696987000000       9.827491000000
350    3       16.037045000000      13.168115000000       9.320002000000
351    2       16.711208000000      13.099779000000      10.043953000000
352    3        3.183733000000       8.385478000000       8.644942000000
353    3        3.741802000000       9.764560000000       7.918087000000
354    2        3.394191000000       8.815541000000       7.746130000000
355    3        1.655750000000       9.724839000000       4.948760000000
356    3        2.646351000000      10.562428000000       4.119214000000
357    2        1.653378000000      10.442440000000       4.194191000000
358    3        5.213309000000       1.574794000000      27.635757000000
359    3        5.190722000000       2.766258000000      26.672365000000
360    2        5.321229000000       2.581171000000      27.605312000000
361    3        0.224018000000       4.669116000000      28.032791000000
362    3        0.799081000000       5.870172000000      28.971481000000
363    2        0.515182000000       5.632918000000      28.088537000000
364    3       19.769205000000       4.570114000000       6.871253000000
365    3       20.161964000000       3.035455000000       6.894516000000
366    2        0.140249000000       3.920781000000       7.302582000000
367    3       15.699671000000       5.106335000000      29.145500000000
368    3       16.771465000000       4.379152000000      29.946716000000
369    2       16.151747000000       5.157224000000      30.062387000000
370    3       15.016456000000      10.614955000000       6.242862000000
371    3       14.965850000000      12.146624000000       6.697402000000
372    2       15.520353000000      11.396810000000       6.696856000000
373    3        5.208948000000      13.874377000000      33.549397000000
374    3        5.259615000000      12.306481000000      33.839325000000
375    2        4.913290000000      12.995857000000      33.203148000000
376    3       14.363437000000      14.072680000000      29.741947000000
377    3       13.544317000000       0.976203000000      29.424940000000
378    2       14.426529000000       0.569863000000      29.233927000000
379    3       17.631945000000       4.778163000000       5.717278000000
380    3       16.571423000000       3.657261000000       6.102113000000
381    2       16.811911000000       4.288311000000       5.376150000000
382    3       18.722607000000      11.498628000000      32.448879000000
383    3       18.335587000000      11.341042000000      30.995008000000
384    2       18.135841000000      10.927057000000      31.877048000000
385    3       16.584814000000       3.549416000000      34.566635000000
386    3       16.658916000000       5.197151000000      34.351959000000
387    2       16.772806000000       4.258418000000      33.899300000000
388    3       16.884638000000      10.944846000000       0.848897000000
389    3       15.727853000000      11.478161000000       1.714965000000
390    2       15.993626000000      10.726740000000       1.128529000000
391    3        5.049530000000      10.641268000000      32.473328000000
392    3        4.862501000000       9.162511000000      31.960596000000
393    2        4.681326000000      10.149015000000      31.730846000000
394    3       10.791667000000      13.245195000000       8.750262000000
395    3       12.045362000000      13.066351000000       9.721175000000
396    2       11.453631000000      12.594669000000       9.091336000000
397    3        2.636475000000       4.066960000000       5.564356000000
398    3        1.752093000000       4.255879000000       6.930972000000
399    2        2.690540000000       4.321496000000       6.544228000000
400    3       17.670048000000       8.399847000000       3.476052000000
401    3       18.989056000000       8.631306000000       4.461393000000
402    2       18.689785000000       8.320620000000       3.540609000000
403    3       14.926149000000      11.477421000000      33.921364000000
404    3       14.904482000000      11.376472000000      35.471577000000
405    2       14.410950000000      11.818625000000      34.737122000000
406    3       19.852554000000       5.452806000000       0.250214000000
407    3        0.665595000000       6.614114000000       0.371458000000