# File generated with Atomsk by j281j388 on 2026-06-02 11:08:39

864  atoms
3  atom types

0.000000000000      20.251000000000  xlo xhi
0.000000000000      14.320000000000  ylo yhi
0.000000000000      35.707675000000  zlo zhi

Masses

1   28.08500000             # Si
2   15.99900000             # O
3   1.00800000              # H

Atoms # atomic

1    1        2.392519000000       1.697157000000      12.560011000000
2    2        2.419059000000       2.831989000000      11.276256000000
3    3        1.489999000000       3.263616000000      11.096559000000
4    1       10.221894000000       7.713027000000      12.972489000000
5    2        9.939113000000       6.356074000000      11.993876000000
6    3       10.859623000000       5.994699000000      11.585920000000
7    1        0.003999000000       7.602829000000      12.157340000000
8    2        0.231292000000       6.752915000000      10.764929000000
9    3        1.109294000000       6.969453000000      10.227151000000
10    1        5.376518000000       7.803722000000      12.686914000000
11    2        4.870792000000       6.895724000000      11.366140000000
12    3        5.483458000000       6.364614000000      10.774060000000
13    1        7.659577000000       2.124612000000      12.421029000000
14    2        7.182298000000       2.761982000000      11.028763000000
15    3        6.225547000000       3.216281000000      11.057027000000
16    1       19.978506000000      14.005055000000      12.714848000000
17    2       19.575813000000      13.038679000000      11.375985000000
18    3       19.120867000000      12.209280000000      11.642681000000
19    1       20.182013000000       7.880464000000      22.480087000000
20    2       19.617033000000       6.818651000000      23.651320000000
21    3       18.668003000000       6.797634000000      23.595974000000
22    1        5.022796000000       7.439789000000      22.794254000000
23    2        4.804752000000       6.703411000000      24.254005000000
24    3        4.340613000000       7.212145000000      25.077419000000
25    1        2.888011000000       1.962457000000      22.941698000000
26    2        2.571491000000       3.020806000000      24.165594000000
27    3        2.510682000000       2.681359000000      25.120371000000
28    1        7.977081000000       1.952300000000      22.781185000000
29    2        7.601446000000       2.885934000000      24.137400000000
30    3        6.796272000000       3.476365000000      24.434637000000
31    1        2.616332000000       9.332350000000      12.666808000000
32    2        2.646288000000      10.038901000000      11.121930000000
33    3        2.837236000000      10.989515000000      11.303746000000
34    1        7.755778000000       9.826475000000      12.920907000000
35    2        7.986286000000      11.129739000000      11.979158000000
36    3        7.317998000000      11.846190000000      12.263025000000
37    1        5.194659000000       0.070008000000      13.026765000000
38    2        5.596247000000      12.964479000000      12.274048000000
39    3        5.694358000000      12.916973000000      11.312222000000
40    1        5.490064000000       0.065262000000      23.164425000000
41    2        5.412916000000      13.774979000000      24.722048000000
42    3        6.203247000000      13.952145000000      25.376041000000
43    1        2.555038000000       9.445508000000      22.547255000000
44    2        2.467036000000      10.604688000000      23.686399000000
45    3        3.334453000000      10.966979000000      24.073381000000
46    1        0.176743000000       0.359379000000      22.694481000000
47    2       19.857872000000      14.154407000000      24.178076000000
48    3       20.248272000000      13.296973000000      24.438385000000
49    1        7.677411000000       9.096426000000      23.284143000000
50    2        7.191146000000       9.871387000000      24.639912000000
51    3        7.914773000000      10.442601000000      24.986755000000
52    1       10.365361000000      14.123963000000      23.223261000000
53    2       10.175994000000      13.505774000000      24.780499000000
54    3       10.598834000000      14.061908000000      25.525866000000
55    1       12.749413000000       2.112289000000      12.646639000000
56    2       12.908213000000       2.777956000000      11.124966000000
57    3       13.154881000000       2.224520000000      10.311646000000
58    1       15.252193000000       7.759923000000      12.769832000000
59    2       15.210501000000       6.795869000000      11.295306000000
60    3       14.455626000000       6.185723000000      11.133450000000
61    1       17.921068000000       2.122643000000      12.397183000000
62    2       18.433434000000       2.382825000000      10.817452000000
63    3       19.332830000000       2.907825000000      10.729578000000
64    1       10.276834000000       7.074640000000      23.210064000000
65    2       10.738060000000       6.206348000000      24.595451000000
66    3       11.336045000000       6.534425000000      25.320267000000
67    1       12.803594000000       1.727121000000      22.710711000000
68    2       12.703959000000       2.721087000000      24.020166000000
69    3       11.913165000000       3.269936000000      23.954430000000
70    1       18.113100000000       2.268115000000      22.290499000000
71    2       18.044163000000       3.639569000000      23.291363000000
72    3       18.841902000000       4.086768000000      23.574940000000
73    1       15.638101000000       7.798466000000      22.891739000000
74    2       16.599529000000       6.952577000000      24.011000000000
75    3       16.270296000000       7.261836000000      24.920135000000
76    1       12.702075000000       9.569550000000      12.817307000000
77    2       12.316636000000      10.808377000000      11.796367000000
78    3       11.547022000000      10.757082000000      11.137054000000
79    1       17.890524000000       9.429081000000      12.602512000000
80    2       17.399769000000      10.741096000000      11.769093000000
81    3       16.571579000000      11.233287000000      11.915038000000
82    1       15.477001000000       0.343974000000      12.823701000000
83    2       15.653357000000      13.391104000000      11.752597000000
84    3       15.409870000000      13.514273000000      10.800724000000
85    1       10.193212000000       0.302679000000      12.806340000000
86    2       10.750787000000      13.500491000000      11.680567000000
87    3       11.566349000000      12.943605000000      11.983253000000
88    1       15.623342000000       0.316941000000      22.874664000000
89    2       15.513996000000      13.890295000000      24.350021000000
90    3       15.139698000000      12.989260000000      24.346901000000
91    1       12.714773000000       8.985474000000      23.171846000000
92    2       12.290124000000       9.673278000000      24.586313000000
93    3       11.324996000000      10.111113000000      24.755732000000
94    1       17.853607000000      10.051523000000      22.614552000000
95    2       17.662289000000      10.657122000000      24.176109000000
96    3       16.729465000000      10.519435000000      24.486471000000
97    1        0.033576000000       5.942154000000      14.767949000000
98    1        2.969132000000       2.283047000000      17.532124000000
99    1        5.268348000000       5.618581000000      14.954248000000
100    1        2.583939000000       3.881642000000      14.918954000000
101    1        7.900250000000       3.835624000000      14.971174000000
102    1        0.285313000000       0.775277000000      17.518681000000
103    1        2.653120000000       3.794176000000      20.309792000000
104    1        0.230397000000       5.745587000000      20.132824000000
105    1        5.234340000000       5.428130000000      20.219173000000
106    1        7.604873000000       3.486055000000      19.918297000000
107    1        8.082974000000       1.525521000000      17.166513000000
108    1        5.174079000000      12.820502000000      15.594479000000
109    1        7.806012000000      11.198934000000      15.564009000000
110    1        0.269080000000      12.476089000000      15.581541000000
111    1        2.863183000000      10.804916000000      15.305931000000
112    1        7.384709000000       9.285772000000      18.013885000000
113    1        5.364798000000       0.320177000000      17.943811000000
114    1        0.258348000000       7.404512000000      17.558018000000
115    1        2.387075000000      11.086889000000      19.940145000000
116    1       20.180693000000      13.141388000000      19.945227000000
117    1        5.031541000000      12.859675000000      20.508705000000
118    1        7.383420000000      10.810161000000      20.619612000000
119    1        2.851007000000       8.939722000000      17.745602000000
120    1        5.170468000000       7.167580000000      17.781601000000
121    1       10.056605000000       6.129987000000      15.743093000000
122    1       15.220810000000       7.116329000000      17.912664000000
123    1       15.202640000000       5.723782000000      15.160614000000
124    1       17.804159000000       4.067521000000      14.652824000000
125    1       12.533450000000       4.132683000000      15.221855000000
126    1       12.545437000000       3.861979000000      20.497992000000
127    1       14.941596000000       5.618039000000      20.483133000000
128    1       17.680687000000       4.019090000000      19.837166000000
129    1       17.749062000000       2.441560000000      17.149210000000
130    1        9.878875000000       5.546983000000      20.694912000000
131    1       12.828552000000       2.641518000000      17.725660000000
132    1       15.238984000000       0.652937000000      17.747984000000
133    1       10.355018000000      12.926950000000      15.500028000000
134    1       13.049780000000      11.327126000000      15.320406000000
135    1       17.657740000000       8.892154000000      18.158363000000
136    1       17.986031000000      10.716090000000      15.603595000000
137    1       15.629972000000      12.935939000000      15.399253000000
138    1        9.954311000000       7.717794000000      18.645844000000
139    1       13.082930000000       9.398594000000      17.719984000000
140    1       12.821157000000      10.838557000000      20.616468000000
141    1       10.187564000000      12.342045000000      20.589386000000
142    1       15.089133000000      13.083725000000      20.291088000000
143    1       17.569387000000      11.482705000000      20.000229000000
144    1       10.699369000000       0.246979000000      18.238094000000
145    2        8.320289000000       2.335238000000      15.772267000000
146    2        8.250339000000       3.383651000000      13.434595000000
147    2        6.255923000000       1.333732000000      13.053798000000
148    2        1.833917000000       1.181584000000      17.085138000000
149    2        8.670957000000       5.212648000000      15.631505000000
150    2        0.367808000000       7.141742000000      15.901206000000
151    2        6.343425000000       4.319892000000      15.214809000000
152    2        1.072882000000       0.710004000000      12.441381000000
153    2        3.732474000000       0.683616000000      12.436765000000
154    2        2.344865000000       2.575344000000      13.935175000000
155    2        3.850887000000       4.846891000000      14.386532000000
156    2        3.000344000000       3.498837000000      16.468950000000
157    2        1.223818000000       4.833206000000      14.724450000000
158    2        5.046402000000       6.179895000000      16.449570000000
159    2        5.800626000000       6.857873000000      14.041245000000
160    2        8.771145000000       0.923616000000      12.225889000000
161    2        4.538824000000       1.759937000000      17.691895000000
162    2       19.727951000000       6.667020000000      13.397988000000
163    2        2.374320000000       2.811503000000      19.023230000000
164    2        1.326567000000       4.671422000000      20.775517000000
165    2        3.779243000000       4.796081000000      19.786438000000
166    2        3.124263000000       2.975490000000      21.655725000000
167    2       20.213423000000       7.187547000000      20.943203000000
168    2        4.399207000000       1.259379000000      23.135658000000
169    2        1.833490000000       0.629285000000      22.807302000000
170    2        4.969873000000       6.379891000000      21.546474000000
171    2        5.861956000000       6.483789000000      19.135258000000
172    2        7.306122000000       2.754669000000      18.474627000000
173    2        8.678742000000       4.881011000000      19.726902000000
174    2        6.108629000000       4.007550000000      20.376598000000
175    2        8.171859000000       2.546754000000      21.210783000000
176    2        6.870793000000       0.737044000000      22.690084000000
177    2        0.671967000000       6.183558000000      18.612453000000
178    2        9.420373000000       1.174932000000      23.057364000000
179    2        9.297894000000       1.186190000000      18.237392000000
180    2        9.963890000000       7.226111000000      20.204182000000
181    2        6.885530000000       0.442041000000      17.183807000000
182    2        7.494758000000      10.010857000000      14.512033000000
183    2        0.120640000000      13.789711000000      16.565861000000
184    2        4.707242000000      13.346208000000      17.045900000000
185    2       20.223368000000      12.903537000000      13.980727000000
186    2        4.094390000000       8.692128000000      13.098036000000
187    2        1.609939000000       8.102752000000      12.520573000000
188    2        1.824219000000      11.976578000000      15.852388000000
189    2        2.288604000000      10.462428000000      13.816804000000
190    2        4.424103000000      11.416668000000      15.262308000000
191    2        2.983619000000       9.360497000000      16.145243000000
192    2        8.521540000000       8.194468000000      17.954662000000
193    2        7.507571000000      10.659341000000      17.127079000000
194    2        6.808576000000      12.501888000000      15.335655000000
195    2        4.845081000000      14.122310000000      14.576910000000
196    2        9.388264000000      11.602467000000      15.286112000000
197    2        6.582462000000       8.812400000000      12.335312000000
198    2        9.142920000000       8.912570000000      12.751321000000
199    2        1.289668000000       8.631711000000      17.986862000000
200    2        3.162096000000      10.332959000000      18.619085000000
201    2        1.045583000000      11.961425000000      19.550558000000
202    2        3.374948000000      12.419649000000      20.316879000000
203    2        1.941140000000       9.954926000000      21.108973000000
204    2        0.282771000000       0.250816000000      19.076126000000
205    2        5.108390000000      13.203790000000      22.101017000000
206    2        5.575663000000      14.111310000000      19.526249000000
207    2        7.146962000000       9.582691000000      19.632841000000
208    2        8.622065000000      11.839231000000      20.161936000000
209    2        5.937267000000      11.562085000000      20.336065000000
210    2        7.941502000000      10.204082000000      22.068060000000
211    2        6.552342000000       8.054584000000      22.838299000000
212    2        4.055111000000       8.771693000000      22.514130000000
213    2        3.662619000000       7.588626000000      18.184467000000
214    2        1.456935000000       8.210676000000      23.021259000000
215    2        6.006575000000       8.501417000000      17.436237000000
216    2        9.067340000000       8.166260000000      23.601158000000
217    2       20.213791000000      13.494711000000      21.581041000000
218    2       11.850127000000       1.339618000000      18.314552000000
219    2       18.745476000000       0.778274000000      13.050912000000
220    2       18.933352000000       5.085630000000      15.331635000000
221    2       19.391201000000       1.960646000000      17.203272000000
222    2       18.417850000000       3.455104000000      13.258668000000
223    2       17.369928000000       2.720692000000      15.575460000000
224    2       11.231791000000       1.500436000000      12.825545000000
225    2       13.894856000000       0.851263000000      12.916723000000
226    2       10.111033000000       6.511089000000      17.374023000000
227    2       12.944228000000       3.386940000000      13.710980000000
228    2       12.035558000000       2.951610000000      16.281273000000
229    2       13.891288000000       4.893675000000      15.782436000000
230    2       11.260796000000       5.193338000000      14.957480000000
231    2       16.304539000000       1.815461000000      12.512966000000
232    2       14.773683000000       6.968831000000      14.160678000000
233    2       15.846269000000       6.424690000000      16.522999000000
234    2       16.315769000000       4.742531000000      14.304206000000
235    2       10.055490000000       7.431434000000      14.641624000000
236    2       12.997889000000       3.775212000000      18.873114000000
237    2       11.146754000000       4.614439000000      20.523397000000
238    2       13.775033000000       4.682140000000      21.124239000000
239    2       12.362990000000       2.477782000000      21.289949000000
240    2       14.431709000000       1.423519000000      22.561459000000
241    2       11.941562000000       0.339850000000      23.007576000000
242    2       15.174028000000       6.878653000000      21.582176000000
243    2       14.434442000000       6.182217000000      19.045086000000
244    2       17.458990000000       3.697647000000      18.221008000000
245    2       19.066813000000       4.864296000000      20.155336000000
246    2       16.328598000000       4.875948000000      20.152647000000
247    2       17.654776000000       2.653266000000      20.746477000000
248    2       19.747952000000       1.820343000000      22.328699000000
249    2       16.739887000000       1.219881000000      17.658117000000
250    2        9.734175000000       5.769110000000      22.322626000000
251    2       17.026781000000       1.156229000000      22.972904000000
252    2       14.334007000000       2.026664000000      17.403549000000
253    2       16.539576000000       7.830206000000      18.631639000000
254    2       16.882774000000       8.087687000000      12.599225000000
255    2       10.525781000000      13.603687000000      16.941893000000
256    2       19.304667000000       8.879558000000      11.887287000000
257    2       18.973986000000       7.950907000000      17.827257000000
258    2       14.372003000000       9.132773000000      12.705849000000
259    2       11.765079000000       8.244210000000      12.445609000000
260    2       13.035781000000      10.805143000000      16.921873000000
261    2       12.481042000000      10.211464000000      14.274321000000
262    2       14.577525000000      11.826255000000      14.761758000000
263    2       11.925991000000      12.649362000000      15.206509000000
264    2       15.960359000000      14.133556000000      14.276007000000
265    2        9.813885000000      14.032387000000      14.349139000000
266    2       17.181173000000       9.626195000000      16.706995000000
267    2       14.923206000000      13.616320000000      16.732857000000
268    2       17.023335000000      12.083571000000      15.539766000000
269    2       18.115664000000       9.826526000000      14.212062000000
270    2       19.504250000000      11.269114000000      16.059162000000
271    2       11.484352000000       8.582146000000      18.123926000000
272    2       13.407903000000       9.953488000000      19.354095000000
273    2       11.165236000000      10.977757000000      20.521965000000
274    2       13.592267000000      12.404390000000      20.669870000000
275    2       13.204415000000      10.074593000000      22.037413000000
276    2       14.249743000000       8.267866000000      23.722971000000
277    2        9.948801000000      12.816240000000      22.194860000000
278    2       11.545430000000       7.850989000000      22.576906000000
279    2       10.692169000000      13.535895000000      19.610342000000
280    2       15.089791000000       0.097953000000      19.286573000000
281    2       15.780828000000      13.486517000000      21.730917000000
282    2       17.964939000000      10.084451000000      19.318241000000
283    2       18.636618000000      12.700250000000      19.625660000000
284    2       16.054325000000      11.974082000000      19.564438000000
285    2       17.733334000000      11.236978000000      21.602497000000
286    2       19.264908000000       9.310122000000      22.334549000000
287    2       16.440083000000       9.129725000000      22.382284000000
288    2       14.149879000000       8.221210000000      17.274176000000
289    3       15.734632000000      12.029612000000      26.549158000000
290    3       14.966648000000      10.766136000000      26.196379000000
291    2       15.067380000000      11.732124000000      25.864632000000
292    3       19.789410000000      13.641794000000      27.525187000000
293    3        0.782975000000      13.076281000000      28.426336000000
294    2       20.227877000000      13.710453000000      28.399876000000
295    3       15.902800000000       6.907348000000      30.069304000000
296    3       16.744627000000       8.192874000000      29.292276000000
297    2       16.376953000000       7.769681000000      30.140717000000
298    3       12.728286000000      11.449539000000       3.433168000000
299    3       11.738091000000      11.020288000000       4.583156000000
300    2       11.840466000000      10.994755000000       3.569586000000
301    3        0.849646000000       3.044286000000      32.342606000000
302    3       19.989258000000       3.766304000000      33.058716000000
303    2        0.452044000000       3.120843000000      33.220989000000
304    3        5.397344000000      11.530972000000      28.722372000000
305    3        5.753455000000      11.024943000000      30.191059000000
306    2        6.094135000000      10.971970000000      29.179188000000
307    3       19.400297000000      13.908642000000      34.270588000000
308    3       17.661911000000      13.939690000000      34.111916000000
309    2       18.505745000000      13.316871000000      34.286396000000
310    3        1.032860000000       0.125515000000      33.408535000000
311    3        0.437349000000       1.516566000000      33.844700000000
312    2        0.558235000000       0.581075000000      34.185253000000
313    3       11.177103000000       6.537806000000      33.961330000000
314    3        9.945522000000       7.410835000000      34.301613000000
315    2       10.529681000000       6.712372000000      34.697868000000
316    3        2.792687000000      12.786386000000       7.809975000000
317    3        4.111314000000      12.445162000000       8.555452000000
318    2        3.499323000000      12.075620000000       7.827461000000
319    3        7.401275000000       8.386277000000       1.822551000000
320    3        6.045494000000       7.999653000000       2.464763000000
321    2        6.518867000000       7.870568000000       1.553944000000
322    3        6.213937000000       9.013230000000       6.574559000000
323    3        4.681328000000       8.559804000000       7.062145000000
324    2        5.468149000000       8.378201000000       6.456361000000
325    3       12.039250000000       8.553374000000       1.743607000000
326    3       11.953936000000       9.361211000000       3.191494000000
327    2       11.579432000000       8.621034000000       2.620080000000
328    3       13.430634000000       5.970244000000      27.533602000000
329    3       14.230757000000       4.740380000000      27.128101000000
330    2       14.437506000000       5.641494000000      27.538639000000
331    3       19.930464000000      11.819150000000       3.369436000000
332    3       18.869833000000      10.684693000000       3.503731000000
333    2       19.251482000000      11.304242000000       2.854566000000
334    3        0.347574000000      11.016095000000       1.783642000000
335    3        1.293363000000      11.780936000000       0.852123000000
336    2        1.079609000000      10.918432000000       1.125244000000
337    3       10.594328000000       3.418788000000      26.898924000000
338    3       11.372575000000       3.001257000000      28.234413000000
339    2       11.474983000000       3.501776000000      27.373566000000
340    3       18.652014000000      13.327663000000      29.840654000000
341    3       17.347729000000      13.648327000000      30.564436000000
342    2       17.838987000000      12.892348000000      30.213392000000
343    3        2.497188000000       5.960002000000      32.302330000000
344    3        1.817057000000       6.838482000000      31.245216000000
345    2        2.539339000000       6.872509000000      31.945530000000
346    3        6.940890000000       3.077320000000       5.842582000000
347    3        6.333332000000       4.169419000000       4.878878000000
348    2        7.167164000000       3.982158000000       5.405906000000
349    3       15.993378000000      14.259861000000       8.785359000000
350    3       15.045731000000      13.315804000000       8.078765000000
351    2       15.337296000000      13.602168000000       8.997258000000
352    3        2.902401000000       8.793254000000       8.455855000000
353    3        3.298594000000      10.244659000000       8.086421000000
354    2        3.174544000000       9.370613000000       7.700727000000
355    3        1.491925000000      10.966829000000       4.756657000000
356    3        1.977107000000      12.178503000000       3.902404000000
357    2        1.234553000000      11.833432000000       4.445902000000
358    3        5.366185000000       1.965264000000      27.634752000000
359    3        5.149430000000       3.263506000000      26.848877000000
360    2        5.650530000000       2.903194000000      27.679346000000
361    3       19.353281000000       5.195150000000      28.168224000000
362    3       19.970310000000       6.278883000000      28.978289000000
363    2       19.527967000000       6.152445000000      28.064531000000
364    3       19.439365000000       4.879146000000       7.055093000000
365    3       19.710526000000       3.337929000000       7.133432000000
366    2       20.072651000000       4.204162000000       7.564252000000
367    3       14.635414000000       5.064382000000      29.200510000000
368    3       15.766068000000       4.431357000000      30.221138000000
369    2       15.067263000000       5.121836000000      30.130241000000
370    3       14.655111000000      11.434354000000       6.327302000000
371    3       13.406926000000      12.252224000000       6.182531000000
372    2       14.421307000000      12.433270000000       6.303605000000
373    3        4.653592000000       0.628275000000      34.297443000000
374    3        4.820671000000      13.340676000000      34.410999000000
375    2        4.241778000000      14.071579000000      34.120052000000
376    3       13.955077000000      13.792614000000      29.797873000000
377    3       12.798388000000       0.544567000000      29.769932000000
378    2       13.797012000000       0.434525000000      29.514170000000
379    3       17.338064000000       6.049393000000       6.197977000000
380    3       16.003941000000       5.069018000000       6.319669000000
381    2       16.365499000000       5.978634000000       5.963881000000
382    3       18.460270000000      12.098619000000      33.186901000000
383    3       18.239641000000      11.653618000000      31.720825000000
384    2       18.234779000000      11.296003000000      32.602207000000
385    3       16.600294000000       4.019211000000      34.861473000000
386    3       16.349926000000       5.429174000000      34.422062000000
387    2       16.225470000000       4.514348000000      34.085766000000
388    3       16.287903000000      11.739196000000       1.199048000000
389    3       14.984306000000      12.130308000000       2.144133000000
390    2       15.361863000000      11.478722000000       1.487658000000
391    3        5.507463000000      11.229364000000      32.726799000000
392    3        5.548262000000       9.904900000000      32.155285000000
393    2        5.478163000000      10.807090000000      31.815502000000
394    3       11.603438000000      13.294723000000       8.440969000000
395    3       13.015847000000      12.940296000000       8.743995000000
396    2       12.152206000000      12.494643000000       8.497238000000
397    3        2.157455000000       5.234342000000       6.062184000000
398    3        1.405482000000       4.509424000000       7.254131000000
399    2        2.316427000000       4.976326000000       7.042689000000
400    3       17.280775000000       8.959680000000       3.921775000000
401    3       18.226477000000       9.208761000000       5.203992000000
402    2       18.236143000000       9.168364000000       4.147338000000
403    3       14.442092000000      11.362087000000      34.366684000000
404    3       14.284548000000      11.575236000000       0.080019000000
405    2       13.722072000000      11.736320000000      34.939030000000
406    3        0.344697000000       6.179556000000       0.177125000000
407    3        1.276342000000       7.421629000000       0.021399000000