# File generated with Atomsk by j281j388 on 2026-06-02 11:08:24

864  atoms
3  atom types

0.000000000000      20.251000000000  xlo xhi
0.000000000000      14.320000000000  ylo yhi
0.000000000000      35.707675000000  zlo zhi

Masses

1   28.08500000             # Si
2   15.99900000             # O
3   1.00800000              # H

Atoms # atomic

1    1        2.440911000000       1.736098000000      12.776463000000
2    2        2.439463000000       2.772843000000      11.431653000000
3    3        1.519580000000       3.181758000000      11.162969000000
4    1       10.213853000000       7.799321000000      12.771812000000
5    2        9.889130000000       6.568908000000      11.731677000000
6    3       10.719052000000       6.136102000000      11.438491000000
7    1        0.023857000000       7.433595000000      12.112070000000
8    2       20.198469000000       6.557282000000      10.707678000000
9    3        0.741859000000       6.763013000000      10.105215000000
10    1        5.282288000000       7.673431000000      12.721556000000
11    2        4.942822000000       6.896927000000      11.255660000000
12    3        5.810203000000       6.486952000000      10.847161000000
13    1        7.700395000000       2.133497000000      12.767573000000
14    2        7.555292000000       3.118546000000      11.362219000000
15    3        6.750772000000       2.785983000000      10.835120000000
16    1       20.033686000000      14.095309000000      12.857232000000
17    2       19.844088000000      13.246214000000      11.485957000000
18    3       19.898933000000      12.244887000000      11.498393000000
19    1       20.096403000000       7.678913000000      22.469860000000
20    2       19.344271000000       6.734282000000      23.507891000000
21    3       18.431389000000       6.938514000000      23.819357000000
22    1        4.908224000000       7.438185000000      22.673084000000
23    2        5.028643000000       6.730455000000      24.119301000000
24    3        4.683732000000       7.287538000000      24.899216000000
25    1        2.927494000000       1.857933000000      23.126930000000
26    2        2.488700000000       2.747831000000      24.462839000000
27    3        2.563355000000       2.267258000000      25.364346000000
28    1        8.069891000000       1.939014000000      23.010983000000
29    2        7.689118000000       3.111711000000      24.010628000000
30    3        6.783639000000       3.476835000000      24.241102000000
31    1        2.618777000000       9.123590000000      12.597208000000
32    2        2.905392000000       9.631824000000      11.037407000000
33    3        3.186667000000      10.596273000000      11.140244000000
34    1        7.699672000000       9.829718000000      12.984052000000
35    2        7.610381000000      11.407066000000      12.332091000000
36    3        6.913440000000      12.150932000000      12.388276000000
37    1        5.183531000000       0.221920000000      12.918804000000
38    2        5.770671000000      13.346115000000      11.915748000000
39    3        5.563989000000      13.370106000000      10.943638000000
40    1        5.541124000000       0.045252000000      23.316748000000
41    2        5.452399000000      13.703752000000      24.845057000000
42    3        6.371026000000      13.596556000000      25.238293000000
43    1        2.419230000000       9.344509000000      22.620653000000
44    2        2.059142000000      10.326108000000      23.917551000000
45    3        2.902661000000      10.741247000000      24.409618000000
46    1        0.423565000000       0.154558000000      22.850624000000
47    2       20.171686000000      14.090864000000      24.408665000000
48    3        0.346950000000      13.271349000000      24.698013000000
49    1        7.530623000000       9.014274000000      23.090036000000
50    2        6.910878000000       9.672629000000      24.557602000000
51    3        7.684621000000      10.040755000000      24.996742000000
52    1       10.538508000000      14.287029000000      23.203239000000
53    2       10.367157000000      13.567863000000      24.660696000000
54    3       10.862822000000      13.943906000000      25.423420000000
55    1       12.917187000000       2.024423000000      12.558039000000
56    2       13.124434000000       2.793381000000      11.107317000000
57    3       13.393758000000       2.334762000000      10.239410000000
58    1       15.110187000000       7.900378000000      12.866741000000
59    2       14.778626000000       6.970104000000      11.478235000000
60    3       13.837082000000       6.593266000000      11.277294000000
61    1       17.956022000000       1.906432000000      12.555025000000
62    2       18.622343000000       2.001666000000      11.003416000000
63    3       19.237617000000       2.746532000000      10.998718000000
64    1       10.112565000000       7.058228000000      23.031889000000
65    2       10.435966000000       6.181832000000      24.455523000000
66    3       11.356433000000       6.091719000000      24.895807000000
67    1       12.917222000000       1.755426000000      22.607723000000
68    2       12.557477000000       2.842214000000      23.847704000000
69    3       11.597398000000       2.923375000000      24.031370000000
70    1       18.273796000000       2.211056000000      22.357580000000
71    2       18.146660000000       3.557977000000      23.328371000000
72    3       18.813093000000       4.303692000000      23.202314000000
73    1       15.423674000000       7.731078000000      22.763426000000
74    2       16.425390000000       6.925775000000      23.855345000000
75    3       16.215742000000       7.101191000000      24.827837000000
76    1       12.563455000000       9.788348000000      12.704100000000
77    2       12.343840000000      10.925495000000      11.536753000000
78    3       11.700405000000      10.603173000000      10.834673000000
79    1       17.869856000000       9.351904000000      12.655536000000
80    2       17.415634000000      10.598085000000      11.643400000000
81    3       16.822786000000      11.365431000000      11.833184000000
82    1       15.396580000000       0.238520000000      12.906349000000
83    2       15.655999000000      13.311523000000      11.776916000000
84    3       15.393064000000      13.506724000000      10.878163000000
85    1       10.205957000000       0.376328000000      13.017962000000
86    2       10.443735000000      13.276742000000      12.245486000000
87    3       11.277057000000      12.716949000000      12.078350000000
88    1       15.625963000000       0.446589000000      22.924835000000
89    2       15.197378000000       0.017839000000      24.495687000000
90    3       15.146287000000      13.351233000000      24.759424000000
91    1       12.630354000000       9.025275000000      23.072741000000
92    2       12.259996000000       9.819032000000      24.491631000000
93    3       11.290307000000      10.089290000000      24.669268000000
94    1       17.758299000000       9.855391000000      22.588232000000
95    2       17.747101000000      10.412147000000      24.153574000000
96    3       16.968977000000      10.105204000000      24.717318000000
97    1       20.194420000000       5.788115000000      14.975230000000
98    1        2.729973000000       2.082818000000      17.722265000000
99    1        5.240603000000       5.518962000000      15.048347000000
100    1        2.527960000000       3.895325000000      15.209799000000
101    1        7.689261000000       3.661482000000      15.516446000000
102    1        0.098016000000       0.481054000000      17.713606000000
103    1        2.638523000000       3.633888000000      20.403118000000
104    1        0.246761000000       5.668299000000      20.042141000000
105    1        5.103302000000       5.496428000000      20.435501000000
106    1        7.469455000000       3.906568000000      20.592926000000
107    1        7.374722000000       1.907221000000      18.429869000000
108    1        5.242811000000      12.736001000000      15.416112000000
109    1        8.034576000000      11.356378000000      15.554247000000
110    1        0.128644000000      12.374104000000      15.631121000000
111    1        2.815713000000      10.995883000000      14.880708000000
112    1        7.805795000000       9.483994000000      17.814877000000
113    1        5.169994000000       0.186780000000      17.781582000000
114    1        0.473348000000       7.590096000000      17.670927000000
115    1        2.530810000000      11.157786000000      19.874466000000
116    1       20.131126000000      12.968059000000      20.138412000000
117    1        4.990540000000      12.783341000000      20.578306000000
118    1        7.442207000000      10.874947000000      20.576973000000
119    1        3.138686000000       9.319407000000      17.497501000000
120    1        5.458043000000       7.389956000000      17.841915000000
121    1       10.176302000000       5.795306000000      15.121669000000
122    1       15.313125000000       7.408133000000      17.794802000000
123    1       15.119448000000       5.713898000000      15.194711000000
124    1       17.632013000000       4.099992000000      14.709404000000
125    1       12.669885000000       3.814262000000      14.941081000000
126    1       12.720806000000       3.639334000000      20.054890000000
127    1       15.043209000000       5.716400000000      20.255161000000
128    1       17.673088000000       4.026740000000      19.818504000000
129    1       17.874832000000       2.261987000000      17.203032000000
130    1       10.084961000000       5.672591000000      20.045618000000
131    1       12.974165000000       1.966550000000      17.259310000000
132    1       15.433169000000       0.309490000000      17.600405000000
133    1       10.274650000000      13.234262000000      15.643749000000
134    1       12.781821000000      11.614007000000      15.116662000000
135    1       17.771399000000       8.876702000000      18.177502000000
136    1       17.915670000000      10.516928000000      15.590350000000
137    1       15.548594000000      12.654344000000      15.312964000000
138    1       10.201045000000       7.685824000000      17.356417000000
139    1       13.263922000000       9.814301000000      17.596493000000
140    1       12.676072000000      11.044302000000      20.483913000000
141    1       10.081922000000      12.524555000000      20.633921000000
142    1       15.032459000000      13.135925000000      20.330446000000
143    1       17.530605000000      11.507078000000      20.082998000000
144    1       10.210759000000       0.333885000000      18.313967000000
145    2        7.629480000000       2.954360000000      16.988291000000
146    2        8.316479000000       2.871377000000      14.130910000000
147    2        6.262301000000       1.433721000000      13.111718000000
148    2        1.662574000000       0.876795000000      17.236553000000
149    2        8.682931000000       5.023401000000      15.199130000000
150    2        0.483332000000       6.983742000000      16.101332000000
151    2        6.183715000000       4.143251000000      15.059991000000
152    2        1.131723000000       0.670876000000      12.575608000000
153    2        3.842126000000       0.934194000000      12.333150000000
154    2        2.603350000000       2.538157000000      14.190469000000
155    2        3.719315000000       4.926665000000      14.754975000000
156    2        2.647890000000       3.485419000000      16.836128000000
157    2        1.075857000000       4.548315000000      14.861152000000
158    2        5.364476000000       6.185896000000      16.633211000000
159    2        5.758737000000       6.636060000000      13.962990000000
160    2        8.833059000000       0.984881000000      12.235610000000
161    2        4.275383000000       1.490176000000      17.451895000000
162    2       19.923048000000       6.381283000000      13.413857000000
163    2        2.219128000000       2.454672000000      19.324095000000
164    2        1.411469000000       4.747982000000      20.721050000000
165    2        3.975924000000       4.449738000000      19.774315000000
166    2        2.952638000000       2.906366000000      21.845078000000
167    2        0.062237000000       7.086441000000      20.887302000000
168    2        4.559351000000       1.331573000000      23.276520000000
169    2        2.025768000000       0.528715000000      22.799898000000
170    2        4.274783000000       6.333785000000      21.610308000000
171    2        5.792170000000       6.522788000000      19.271814000000
172    2        6.670689000000       2.992434000000      19.417469000000
173    2        8.694875000000       4.656417000000      19.759838000000
174    2        6.277699000000       4.779699000000      21.313141000000
175    2        7.926371000000       2.697894000000      21.540344000000
176    2        7.050828000000       0.610787000000      23.027796000000
177    2        0.749659000000       6.107485000000      18.502453000000
178    2        9.579373000000       1.356463000000      23.295547000000
179    2        8.996554000000       1.498234000000      18.897060000000
180    2        9.946302000000       6.877061000000      18.908709000000
181    2        6.746138000000       0.590644000000      17.639074000000
182    2        7.483249000000      10.064306000000      14.661510000000
183    2       19.970116000000      13.433582000000      16.852619000000
184    2        4.629216000000      13.210543000000      16.895760000000
185    2        0.079971000000      12.995086000000      14.129671000000
186    2        3.967167000000       8.523418000000      13.287804000000
187    2        1.480945000000       8.030347000000      12.574795000000
188    2        1.760354000000      11.949291000000      15.727911000000
189    2        2.119545000000      10.450934000000      13.507792000000
190    2        4.376999000000      11.477580000000      14.653165000000
191    2        3.196901000000       9.635398000000      15.932035000000
192    2        8.838041000000       8.457777000000      16.903433000000
193    2        8.027437000000      10.942923000000      17.193720000000
194    2        6.810585000000      12.476514000000      15.443824000000
195    2        4.930647000000      13.979129000000      14.409474000000
196    2        9.535508000000      11.892310000000      15.083350000000
197    2        6.469705000000       8.781064000000      12.480205000000
198    2        9.147150000000       9.114606000000      12.576375000000
199    2        1.504637000000       8.911943000000      17.838146000000
200    2        3.393077000000      10.617431000000      18.568836000000
201    2        0.976035000000      11.811707000000      19.660503000000
202    2        3.362068000000      12.435019000000      20.459053000000
203    2        2.199534000000      10.148467000000      21.138432000000
204    2       20.120708000000       0.162847000000      19.321939000000
205    2        5.198596000000      13.214084000000      22.153822000000
206    2        5.101978000000      14.039946000000      19.508926000000
207    2        7.753561000000       9.666696000000      19.455584000000
208    2        8.579262000000      12.033324000000      20.287138000000
209    2        5.910703000000      11.345568000000      20.224649000000
210    2        7.702376000000      10.341189000000      22.104296000000
211    2        6.494138000000       7.981839000000      22.337000000000
212    2        3.986141000000       8.826694000000      22.651869000000
213    2        3.907875000000       8.019088000000      18.144522000000
214    2        1.415017000000       8.002581000000      22.874310000000
215    2        6.351791000000       8.666198000000      17.504835000000
216    2        8.919856000000       8.158880000000      23.374613000000
217    2        0.023840000000      13.285207000000      21.744751000000
218    2       11.664452000000       0.851795000000      17.698618000000
219    2       18.600201000000       0.603715000000      13.365200000000
220    2       18.806946000000       5.019391000000      15.428792000000
221    2       19.435522000000       1.759689000000      17.233149000000
222    2       18.225054000000       3.347121000000      13.299554000000
223    2       17.297819000000       2.887061000000      15.823617000000
224    2       11.408431000000       1.487128000000      12.972954000000
225    2       13.773191000000       0.610272000000      12.807845000000
226    2       10.698612000000       6.341369000000      16.609064000000
227    2       13.364639000000       3.258903000000      13.556902000000
228    2       12.205469000000       2.610653000000      15.917844000000
229    2       13.775863000000       4.814198000000      15.663212000000
230    2       11.376177000000       4.782694000000      14.530747000000
231    2       16.336725000000       1.594458000000      12.533321000000
232    2       14.666687000000       7.027551000000      14.189221000000
233    2       15.711700000000       6.454050000000      16.563097000000
234    2       16.243835000000       4.901876000000      14.321866000000
235    2       10.236333000000       7.230016000000      14.252975000000
236    2       13.085264000000       2.907229000000      18.619602000000
237    2       11.483850000000       4.795850000000      19.842993000000
238    2       13.944696000000       4.521924000000      20.718689000000
239    2       12.363762000000       2.424540000000      21.190443000000
240    2       14.623678000000       1.663755000000      22.484756000000
241    2       12.158031000000       0.229322000000      22.735552000000
242    2       14.968362000000       6.783430000000      21.485643000000
243    2       14.437466000000       6.450099000000      18.909536000000
244    2       17.608223000000       3.576087000000      18.253801000000
245    2       19.098141000000       4.883305000000      20.168816000000
246    2       16.555611000000       5.141789000000      20.211954000000
247    2       17.708071000000       2.609563000000      20.776205000000
248    2       19.816683000000       1.579769000000      22.423834000000
249    2       16.945461000000       0.930265000000      17.558109000000
250    2        9.740910000000       6.093429000000      21.662674000000
251    2       17.163668000000       1.140017000000      23.094721000000
252    2       14.459291000000       1.448602000000      16.843538000000
253    2       16.719181000000       7.674617000000      18.655916000000
254    2       16.716934000000       8.129674000000      12.691119000000
255    2        9.604443000000      13.588987000000      17.119896000000
256    2       19.323015000000       8.812445000000      12.090799000000
257    2       19.248863000000       8.197501000000      18.063612000000
258    2       14.162372000000       9.292411000000      12.784507000000
259    2       11.754213000000       8.407754000000      12.427071000000
260    2       13.070310000000      11.034291000000      16.701895000000
261    2       12.073961000000      10.508751000000      14.136047000000
262    2       14.297249000000      11.861233000000      14.587939000000
263    2       11.921751000000      12.989558000000      15.495344000000
264    2       15.950257000000      13.892994000000      14.325294000000
265    2        9.963977000000       0.259002000000      14.632980000000
266    2       17.326277000000       9.508407000000      16.712429000000
267    2       15.117666000000      13.241241000000      16.792561000000
268    2       16.971270000000      11.804790000000      15.385065000000
269    2       18.041725000000       9.583872000000      14.249870000000
270    2       19.413208000000      11.098564000000      15.962066000000
271    2       11.676894000000       8.827043000000      17.227612000000
272    2       13.371655000000      10.231760000000      19.195333000000
273    2       11.059337000000      11.199652000000      20.298521000000
274    2       13.438830000000      12.543333000000      20.523018000000
275    2       12.913987000000      10.020219000000      21.810249000000
276    2       14.048699000000       8.234223000000      23.543989000000
277    2       10.238678000000      12.970050000000      22.268715000000
278    2       11.555600000000       7.836741000000      22.524723000000
279    2       10.575237000000      13.862814000000      19.769253000000
280    2       14.953312000000       0.110236000000      19.242599000000
281    2       15.683377000000      13.596559000000      21.767195000000
282    2       17.894678000000      10.074520000000      19.282055000000
283    2       18.542614000000      12.711314000000      19.612528000000
284    2       15.964692000000      11.935474000000      19.808784000000
285    2       17.844755000000      11.325271000000      21.721327000000
286    2       19.187836000000       8.977082000000      22.446337000000
287    2       16.297201000000       9.086137000000      22.240360000000
288    2       14.590888000000       8.827089000000      17.267334000000
289    3       15.210743000000      12.119215000000      26.825092000000
290    3       14.142021000000      11.164490000000      26.105885000000
291    2       14.440317000000      12.144101000000      26.165428000000
292    3       19.360495000000      13.501898000000      27.904533000000
293    3        0.382855000000      12.846901000000      28.792608000000
294    2       19.944582000000      13.568297000000      28.752045000000
295    3       16.056585000000       6.806068000000      30.107357000000
296    3       17.040802000000       7.903356000000      29.355768000000
297    2       16.483356000000       7.720615000000      30.181202000000
298    3       12.497206000000      11.968444000000       3.481971000000
299    3       11.220081000000      11.432257000000       4.423046000000
300    2       11.553625000000      11.606120000000       3.489392000000
301    3        0.487100000000       2.474907000000      32.496136000000
302    3       19.658716000000       3.419491000000      33.032639000000
303    2        0.211474000000       2.923850000000      33.338703000000
304    3        5.320488000000      11.444534000000      28.820213000000
305    3        5.933862000000      10.812665000000      30.146334000000
306    2        6.045645000000      10.733823000000      29.131054000000
307    3       19.039238000000      14.135593000000      34.598690000000
308    3       17.543814000000      14.065944000000      34.480030000000
309    2       18.332155000000      13.452964000000      34.664276000000
310    3        0.890427000000       0.169057000000      34.267780000000
311    3        0.274520000000       1.507133000000      34.631058000000
312    2        0.239038000000       0.526246000000      34.906387000000
313    3       11.221974000000       6.666761000000      33.630440000000
314    3        9.780883000000       7.337659000000      33.837246000000
315    2       10.369261000000       6.547400000000      34.157154000000
316    3        2.641352000000      12.455227000000       7.555004000000
317    3        3.989836000000      12.548344000000       8.369740000000
318    2        3.517483000000      11.996749000000       7.638625000000
319    3        6.993010000000       8.503983000000       1.530609000000
320    3        5.607422000000       8.099294000000       2.277792000000
321    2        6.182976000000       7.918893000000       1.425392000000
322    3        6.266990000000       9.063046000000       6.239410000000
323    3        4.751727000000       8.555868000000       6.438844000000
324    2        5.607958000000       8.290913000000       6.024304000000
325    3       11.732654000000       8.700269000000       1.943682000000
326    3       11.480216000000       9.727323000000       3.087874000000
327    2       11.136000000000       8.851112000000       2.737710000000
328    3       13.614422000000       6.121650000000      27.701550000000
329    3       14.645823000000       5.308586000000      27.176359000000
330    2       14.628012000000       6.052125000000      27.814735000000
331    3       19.869852000000      11.879745000000       3.804428000000
332    3       18.659147000000      10.782179000000       3.701664000000
333    2       19.039448000000      11.606620000000       3.288729000000
334    3        0.091119000000      11.198565000000       2.362458000000
335    3        1.253928000000      12.001844000000       1.656974000000
336    2        0.909057000000      11.067219000000       1.822485000000
337    3       10.925288000000       3.011786000000      26.927324000000
338    3       11.842871000000       2.898523000000      28.254204000000
339    2       11.587679000000       3.468819000000      27.493069000000
340    3       18.456324000000      13.419661000000      30.043051000000
341    3       17.181129000000      13.761274000000      30.760696000000
342    2       17.673237000000      12.999650000000      30.376972000000
343    3        2.612627000000       5.705032000000      32.489513000000
344    3        1.714975000000       6.430176000000      31.454456000000
345    2        2.582683000000       6.526679000000      31.888262000000
346    3        6.931608000000       3.001668000000       5.795097000000
347    3        5.977840000000       3.649196000000       4.679953000000
348    2        6.832355000000       3.804611000000       5.111555000000
349    3       16.338291000000      14.129087000000       8.892200000000
350    3       15.487701000000      13.337560000000       7.788204000000
351    2       15.527534000000      13.545796000000       8.801766000000
352    3        3.213584000000       8.785625000000       8.644485000000
353    3        3.305649000000      10.172706000000       7.941957000000
354    2        3.325463000000       9.137527000000       7.770165000000
355    3        1.107221000000      10.883335000000       5.136950000000
356    3        1.965644000000      11.954370000000       4.325559000000
357    2        1.096174000000      11.817286000000       4.803359000000
358    3        5.288364000000       2.156456000000      27.596502000000
359    3        5.167058000000       3.689129000000      27.130877000000
360    2        5.543702000000       3.101959000000      27.832966000000
361    3       19.378729000000       4.957209000000      28.156464000000
362    3       19.914803000000       6.279170000000      28.611649000000
363    2       19.830330000000       5.765802000000      27.786646000000
364    3       19.879581000000       5.059317000000       7.206567000000
365    3       20.192801000000       3.544993000000       7.093459000000
366    2        0.204485000000       4.367262000000       7.635761000000
367    3       14.820101000000       5.243960000000      29.637720000000
368    3       16.042976000000       4.626881000000      30.463871000000
369    2       15.279703000000       5.385721000000      30.537668000000
370    3       14.960161000000      11.689513000000       5.920519000000
371    3       13.910600000000      12.770381000000       6.181235000000
372    2       14.881691000000      12.661812000000       6.052548000000
373    3        4.587466000000       0.180492000000      34.180462000000
374    3        4.816537000000      12.956511000000      34.047447000000
375    2        4.211709000000      13.680323000000      33.822098000000
376    3       14.075306000000      13.638124000000      30.098595000000
377    3       13.397756000000       0.734208000000      29.973438000000
378    2       14.297423000000       0.290574000000      29.838619000000
379    3       17.164490000000       5.734866000000       6.436143000000
380    3       16.074497000000       4.774838000000       6.807754000000
381    2       16.181383000000       5.505641000000       6.142302000000
382    3       18.214817000000      12.214297000000      33.516571000000
383    3       18.526182000000      11.872453000000      32.042454000000
384    2       18.242735000000      11.414843000000      32.825680000000
385    3       16.698017000000       4.060975000000      34.853157000000
386    3       16.866306000000       5.648168000000      34.433849000000
387    2       16.592894000000       4.705800000000      34.059971000000
388    3       16.156000000000      11.743722000000       1.569364000000
389    3       15.029090000000      11.639629000000       2.535172000000
390    2       15.616951000000      11.046024000000       1.974014000000
391    3        5.531012000000      10.960273000000      32.540058000000
392    3        5.045270000000       9.609550000000      31.994492000000
393    2        5.077996000000      10.573268000000      31.753035000000
394    3       11.085761000000      13.170053000000       8.988928000000
395    3       12.469731000000      12.731808000000       9.822741000000
396    2       11.852583000000      12.500774000000       9.075805000000
397    3        3.106274000000       5.017997000000       6.292787000000
398    3        1.965219000000       4.758926000000       7.469419000000
399    2        2.841428000000       5.141622000000       7.213119000000
400    3       17.714277000000       8.831059000000       4.035048000000
401    3       18.624207000000       9.399166000000       5.230965000000
402    2       18.689255000000       9.168575000000       4.208677000000
403    3       14.745527000000      11.795920000000      34.617088000000
404    3       14.277827000000      11.212111000000       0.215848000000
405    2       14.009379000000      11.890066000000      35.281445000000
406    3        0.047602000000       6.139923000000      35.633816000000
407    3        0.980159000000       7.382308000000      35.572845000000