# File generated with Atomsk by j281j388 on 2026-06-02 11:08:50

864  atoms
3  atom types

0.000000000000      20.251000000000  xlo xhi
0.000000000000      14.320000000000  ylo yhi
0.000000000000      35.707675000000  zlo zhi

Masses

1   28.08500000             # Si
2   15.99900000             # O
3   1.00800000              # H

Atoms # atomic

1    1        2.417166000000       1.843233000000      12.626377000000
2    2        2.220151000000       2.945133000000      11.447093000000
3    3        1.281649000000       3.210402000000      11.149263000000
4    1       10.083200000000       7.805532000000      12.540986000000
5    2        9.932704000000       6.749121000000      11.281594000000
6    3       10.795383000000       6.234851000000      11.123237000000
7    1        0.033112000000       7.320607000000      12.266670000000
8    2       20.127327000000       6.396579000000      10.912986000000
9    3        0.639018000000       6.588326000000      10.285995000000
10    1        5.375957000000       7.480291000000      12.933198000000
11    2        5.179253000000       6.359274000000      11.725204000000
12    3        5.819474000000       6.272343000000      10.993828000000
13    1        7.777868000000       2.182240000000      12.486461000000
14    2        7.550863000000       3.001063000000      11.007703000000
15    3        6.543372000000       3.086821000000      10.818287000000
16    1       20.029696000000      14.175912000000      12.790451000000
17    2       19.972473000000      13.230347000000      11.440037000000
18    3       19.350386000000      12.481284000000      11.547169000000
19    1        0.001229000000       7.611791000000      22.584848000000
20    2       19.561594000000       6.467414000000      23.615883000000
21    3       18.589951000000       6.501651000000      23.428005000000
22    1        4.884673000000       7.373447000000      22.903009000000
23    2        4.534096000000       6.850358000000      24.420027000000
24    3        4.312162000000       7.445454000000      25.202053000000
25    1        3.015077000000       1.917384000000      23.067734000000
26    2        2.608103000000       2.918326000000      24.325836000000
27    3        2.686172000000       2.427932000000      25.232721000000
28    1        8.146364000000       2.017172000000      22.997919000000
29    2        7.554556000000       3.026580000000      24.260408000000
30    3        6.576097000000       3.408952000000      24.309153000000
31    1        2.682748000000       9.081346000000      12.675447000000
32    2        2.864096000000       9.993522000000      11.266144000000
33    3        2.973651000000      11.007672000000      11.428347000000
34    1        7.578202000000       9.758788000000      12.732812000000
35    2        7.778543000000      11.244278000000      12.073195000000
36    3        6.962271000000      11.858669000000      12.010324000000
37    1        5.154410000000       0.355207000000      12.725359000000
38    2        5.663777000000      13.265386000000      11.957227000000
39    3        5.513461000000      13.254319000000      10.959038000000
40    1        5.585147000000      14.311916000000      23.286840000000
41    2        5.433229000000      13.646996000000      24.858343000000
42    3        6.206766000000      13.841899000000      25.511740000000
43    1        2.531499000000       9.444822000000      22.631819000000
44    2        2.662511000000      10.627560000000      23.888939000000
45    3        3.518072000000      10.942060000000      24.395247000000
46    1        0.378573000000       0.266125000000      22.730667000000
47    2       20.102404000000      14.219563000000      24.297171000000
48    3        0.234973000000      13.287107000000      24.592876000000
49    1        7.548255000000       8.870366000000      23.125257000000
50    2        7.251083000000       9.618926000000      24.602989000000
51    3        8.102311000000      10.073717000000      24.870758000000
52    1       10.485239000000       0.047351000000      23.343163000000
53    2       10.278034000000      13.502414000000      24.812378000000
54    3       10.802052000000      13.951409000000      25.672132000000
55    1       12.738554000000       2.014815000000      12.567986000000
56    2       12.634419000000       2.722672000000      11.086501000000
57    3       12.994835000000       2.292815000000      10.223887000000
58    1       15.011500000000       7.905520000000      12.617188000000
59    2       14.806879000000       6.967232000000      11.292163000000
60    3       13.919595000000       6.424709000000      11.358981000000
61    1       17.884041000000       2.084286000000      12.506363000000
62    2       18.348797000000       2.264197000000      10.916956000000
63    3       19.101299000000       2.886113000000      10.611278000000
64    1       10.277255000000       7.107827000000      22.893610000000
65    2       10.686420000000       6.179806000000      24.190058000000
66    3       11.313283000000       6.404970000000      24.956970000000
67    1       12.870445000000       1.940197000000      22.725792000000
68    2       12.701508000000       2.997630000000      23.923319000000
69    3       12.024652000000       3.698166000000      23.794857000000
70    1       18.209515000000       2.282049000000      22.358847000000
71    2       18.396614000000       3.626256000000      23.238773000000
72    3       19.170124000000       4.232762000000      23.203320000000
73    1       15.559667000000       7.869390000000      22.847055000000
74    2       16.645529000000       6.996021000000      23.749432000000
75    3       16.676453000000       7.304851000000      24.732735000000
76    1       12.559130000000       9.740306000000      13.028956000000
77    2       12.259629000000      11.069208000000      12.084873000000
78    3       11.519440000000      10.826403000000      11.406679000000
79    1       17.901306000000       9.309695000000      12.558608000000
80    2       17.642048000000      10.726924000000      11.589544000000
81    3       17.093401000000      11.442638000000      11.992234000000
82    1       15.381968000000       0.229877000000      12.809810000000
83    2       15.849500000000      13.277792000000      11.799987000000
84    3       15.478498000000      13.253942000000      10.947641000000
85    1       10.165506000000       0.294390000000      12.731968000000
86    2       10.763604000000      13.493858000000      11.682061000000
87    3       11.577848000000      12.991984000000      11.922477000000
88    1       15.738402000000       0.471254000000      23.072685000000
89    2       15.599716000000      14.095120000000      24.585415000000
90    3       15.102283000000      13.157872000000      24.822092000000
91    1       12.702197000000       9.055429000000      23.409306000000
92    2       12.083919000000       9.515840000000      24.882231000000
93    3       11.229651000000      10.046191000000      24.866625000000
94    1       17.928823000000       9.837928000000      22.618151000000
95    2       18.287003000000      10.160444000000      24.260830000000
96    3       18.232162000000       9.492172000000      24.953968000000
97    1        0.209846000000       5.852497000000      15.083751000000
98    1        2.714336000000       2.094594000000      17.510357000000
99    1        5.388978000000       5.574656000000      15.371416000000
100    1        2.762971000000       3.951485000000      15.077049000000
101    1        7.950006000000       3.721827000000      15.439407000000
102    1        0.155188000000       0.581707000000      17.572210000000
103    1        2.661577000000       3.626406000000      20.290379000000
104    1        0.301005000000       5.655720000000      20.081697000000
105    1        5.069865000000       5.483387000000      20.350121000000
106    1        7.507371000000       3.548680000000      20.229778000000
107    1        7.828331000000       1.644162000000      17.950893000000
108    1        5.239247000000      12.904357000000      15.292066000000
109    1        7.677614000000      11.195561000000      15.373837000000
110    1        0.188132000000      12.495549000000      15.574619000000
111    1        2.977885000000      10.988668000000      15.153519000000
112    1        7.684515000000       9.352385000000      17.752834000000
113    1        5.211073000000       0.079746000000      17.805212000000
114    1        0.766791000000       7.638748000000      17.763117000000
115    1        2.430023000000      11.368161000000      20.184286000000
116    1        0.000638000000      13.214943000000      19.970469000000
117    1        5.057166000000      12.751896000000      20.591579000000
118    1        7.483561000000      10.853351000000      20.542295000000
119    1        3.449349000000       9.669087000000      17.929296000000
120    1        5.396060000000       7.298169000000      17.931175000000
121    1       10.242929000000       5.833989000000      15.084143000000
122    1       15.182437000000       7.641058000000      17.961700000000
123    1       15.168224000000       6.031653000000      15.120337000000
124    1       17.846107000000       4.244899000000      14.863855000000
125    1       12.699846000000       3.996274000000      15.035358000000
126    1       12.644699000000       3.718202000000      20.076221000000
127    1       14.972688000000       5.736325000000      20.440598000000
128    1       17.695135000000       4.040579000000      19.884548000000
129    1       17.722200000000       2.336377000000      17.299969000000
130    1        9.937498000000       5.700700000000      19.976755000000
131    1       12.687407000000       1.992343000000      17.461004000000
132    1       15.275879000000       0.218353000000      17.864677000000
133    1       10.131563000000      12.898738000000      15.377704000000
134    1       12.751007000000      11.360973000000      15.574889000000
135    1       17.955406000000       9.063334000000      18.099812000000
136    1       18.008234000000      10.677636000000      15.469051000000
137    1       15.584479000000      12.709248000000      15.338380000000
138    1       10.254631000000       7.655719000000      17.510990000000
139    1       12.643303000000       9.828769000000      18.375513000000
140    1       12.639885000000      11.070728000000      21.178713000000
141    1       10.052195000000      12.551473000000      20.727268000000
142    1       14.992052000000      13.119926000000      20.551096000000
143    1       17.664099000000      11.581039000000      20.086807000000
144    1       10.325323000000      14.304276000000      18.116674000000
145    2        8.235546000000       2.481916000000      16.543985000000
146    2        8.127095000000       3.092442000000      13.845547000000
147    2        6.365259000000       1.457379000000      12.845394000000
148    2        1.559902000000       1.082010000000      16.871317000000
149    2        8.905405000000       5.109746000000      15.753602000000
150    2        0.850844000000       6.973872000000      16.158381000000
151    2        6.394571000000       4.225479000000      15.565711000000
152    2        1.093540000000       0.845330000000      12.691326000000
153    2        3.721457000000       0.926856000000      12.152974000000
154    2        2.868531000000       2.573628000000      14.069255000000
155    2        3.931523000000       5.126966000000      14.751575000000
156    2        3.065415000000       3.405067000000      16.629053000000
157    2        1.309963000000       4.660430000000      14.888487000000
158    2        5.016824000000       6.212335000000      16.834623000000
159    2        5.999362000000       6.803201000000      14.322376000000
160    2        8.877711000000       1.033230000000      11.927583000000
161    2        4.292909000000       1.433376000000      17.722960000000
162    2       20.002943000000       6.489669000000      13.645353000000
163    2        2.257115000000       2.457196000000      19.172689000000
164    2        1.240632000000       4.428522000000      20.672493000000
165    2        3.866391000000       4.627732000000      19.655388000000
166    2        3.139632000000       2.927735000000      21.764034000000
167    2        0.180426000000       6.924908000000      21.114494000000
168    2        4.473582000000       1.162893000000      23.200792000000
169    2        2.016447000000       0.695380000000      22.645397000000
170    2        4.578038000000       6.157172000000      21.785667000000
171    2        5.809956000000       6.584232000000      19.329823000000
172    2        6.985368000000       2.635359000000      18.985289000000
173    2        8.766932000000       4.607063000000      19.700308000000
174    2        6.255206000000       4.433632000000      20.855324000000
175    2        8.306926000000       2.601069000000      21.445181000000
176    2        7.181362000000       0.659164000000      23.174448000000
177    2        1.004184000000       6.313938000000      18.661673000000
178    2        9.696939000000       1.554108000000      23.385286000000
179    2        9.239648000000       1.218795000000      18.661713000000
180    2        9.970027000000       6.918568000000      18.957745000000
181    2        6.800747000000       0.438841000000      17.351559000000
182    2        7.378756000000       9.879016000000      14.395864000000
183    2       20.008492000000      13.560145000000      16.737793000000
184    2        4.766800000000      13.010814000000      16.871319000000
185    2       20.221117000000      13.136695000000      14.039091000000
186    2        3.887385000000       8.182406000000      13.308085000000
187    2        1.628223000000       7.879600000000      12.191423000000
188    2        1.779432000000      12.012554000000      15.614274000000
189    2        2.157210000000       9.983914000000      13.979727000000
190    2        4.288205000000      11.821410000000      14.508010000000
191    2        3.598571000000      10.132820000000      16.384476000000
192    2        8.974552000000       8.573312000000      16.986450000000
193    2        7.718411000000      10.891515000000      16.994040000000
194    2        6.797059000000      12.519473000000      15.060359000000
195    2        4.995213000000      14.300641000000      14.347960000000
196    2        9.309791000000      11.519396000000      14.931635000000
197    2        6.409630000000       8.681792000000      12.281865000000
198    2        8.950543000000       8.955273000000      12.301475000000
199    2        1.835938000000       8.867032000000      17.807400000000
200    2        3.426167000000      10.885262000000      18.939648000000
201    2        1.030594000000      11.977619000000      19.562613000000
202    2        3.434266000000      12.530401000000      20.849028000000
203    2        2.097038000000      10.016645000000      21.093407000000
204    2        0.412189000000       0.219586000000      19.123226000000
205    2        5.604182000000      13.193152000000      22.111725000000
206    2        5.185699000000      13.926135000000      19.438286000000
207    2        7.809202000000       9.565536000000      19.358097000000
208    2        8.517264000000      12.112825000000      20.282927000000
209    2        5.943439000000      11.403152000000      20.238174000000
210    2        7.621516000000      10.142392000000      22.000532000000
211    2        6.420696000000       7.857186000000      22.550650000000
212    2        4.010270000000       8.746916000000      22.517113000000
213    2        4.253707000000       8.367129000000      18.454319000000
214    2        1.372669000000       8.317747000000      23.177172000000
215    2        6.444969000000       8.382930000000      17.343838000000
216    2        9.036812000000       8.108784000000      23.233946000000
217    2        0.264951000000      13.334297000000      21.582573000000
218    2       11.623401000000       0.810781000000      17.630838000000
219    2       18.728554000000       0.810356000000      13.113830000000
220    2       18.980015000000       5.086076000000      15.598988000000
221    2       19.327753000000       1.845056000000      17.335327000000
222    2       18.207893000000       3.522616000000      13.423774000000
223    2       17.377899000000       2.927323000000      15.816455000000
224    2       11.297915000000       1.403365000000      13.025701000000
225    2       13.794017000000       0.712899000000      12.514122000000
226    2       10.901519000000       6.676838000000      16.397015000000
227    2       13.264164000000       3.164032000000      13.753667000000
228    2       12.155243000000       2.996312000000      16.243336000000
229    2       13.989241000000       4.980884000000      15.506019000000
230    2       11.404311000000       4.827185000000      14.495096000000
231    2       16.310574000000       1.610836000000      12.328153000000
232    2       14.612782000000       7.205298000000      14.042956000000
233    2       15.401246000000       6.924055000000      16.487110000000
234    2       16.557194000000       5.244432000000      14.624443000000
235    2        9.866962000000       6.945037000000      13.943059000000
236    2       13.142904000000       2.842347000000      18.795790000000
237    2       11.326575000000       4.627547000000      19.779663000000
238    2       13.861962000000       4.567762000000      20.827923000000
239    2       12.284183000000       2.524563000000      21.285276000000
240    2       14.536267000000       1.629462000000      22.769098000000
241    2       12.057420000000       0.496792000000      23.088175000000
242    2       15.224300000000       6.976622000000      21.505129000000
243    2       14.461293000000       6.464280000000      18.991123000000
244    2       17.429113000000       3.528729000000      18.356081000000
245    2       19.024734000000       5.022260000000      19.952883000000
246    2       16.378302000000       4.941695000000      20.217907000000
247    2       17.841190000000       2.699652000000      20.864029000000
248    2       19.730471000000       1.542201000000      22.241879000000
249    2       16.826090000000       0.942932000000      17.732582000000
250    2        9.965320000000       6.166686000000      21.597534000000
251    2       17.171453000000       1.272011000000      23.177227000000
252    2       14.133734000000       1.223999000000      17.054735000000
253    2       16.702684000000       8.024040000000      18.520844000000
254    2       16.594927000000       8.288974000000      12.448764000000
255    2        9.655376000000      13.368963000000      16.914497000000
256    2       19.297998000000       8.599689000000      12.059905000000
257    2       19.387495000000       8.207561000000      18.028732000000
258    2       14.085431000000       9.255419000000      12.724025000000
259    2       11.543126000000       8.511387000000      12.444978000000
260    2       12.516085000000      11.092011000000      17.236032000000
261    2       12.346453000000      10.024916000000      14.669007000000
262    2       14.339153000000      11.720729000000      15.046050000000
263    2       11.742356000000      12.631879000000      15.215508000000
264    2       15.512762000000      14.069929000000      14.360052000000
265    2        9.740238000000      14.038361000000      14.241557000000
266    2       17.338465000000       9.734237000000      16.666443000000
267    2       15.479591000000      13.184621000000      16.947460000000
268    2       17.077921000000      12.028379000000      15.057321000000
269    2       18.091949000000       9.663593000000      14.202607000000
270    2       19.540850000000      11.158493000000      15.952974000000
271    2       11.239127000000       8.857874000000      18.271955000000
272    2       13.049370000000      10.001657000000      19.930162000000
273    2       10.988297000000      11.315989000000      21.207701000000
274    2       13.418872000000      12.508922000000      21.010305000000
275    2       13.222634000000      10.398200000000      22.541084000000
276    2       14.167133000000       8.264638000000      23.693504000000
277    2        9.902826000000      13.411011000000      22.120880000000
278    2       11.542974000000       8.172480000000      22.614994000000
279    2       10.594728000000      13.353992000000      19.381229000000
280    2       14.883983000000       0.058602000000      19.467501000000
281    2       15.803043000000      13.585631000000      21.901510000000
282    2       17.973454000000      10.381169000000      19.074484000000
283    2       18.690134000000      12.816559000000      19.614437000000
284    2       16.094873000000      12.052486000000      19.782255000000
285    2       17.981071000000      11.287786000000      21.713783000000
286    2       19.224232000000       8.898585000000      22.177601000000
287    2       16.427155000000       9.247664000000      22.369110000000
288    2       14.019391000000       8.844157000000      17.934399000000
289    3       15.422024000000      11.964879000000      26.670996000000
290    3       14.358603000000      11.136405000000      25.867407000000
291    2       14.722934000000      12.043674000000      26.006453000000
292    3       19.559732000000      13.771832000000      27.870680000000
293    3        0.432602000000      12.929524000000      28.728149000000
294    2       20.217691000000      13.843952000000      28.656063000000
295    3       16.389532000000       7.127852000000      30.015747000000
296    3       16.979513000000       8.560310000000      29.197840000000
297    2       16.640270000000       8.170496000000      30.089293000000
298    3       12.652070000000      11.604617000000       3.614194000000
299    3       11.492867000000      11.546408000000       4.531483000000
300    2       11.670388000000      11.434933000000       3.567576000000
301    3        1.021442000000       2.593361000000      31.879097000000
302    3       19.945162000000       3.325862000000      32.364105000000
303    2        0.486760000000       2.825637000000      32.708675000000
304    3        4.734011000000      10.848305000000      28.749929000000
305    3        5.552815000000      11.032871000000      30.157738000000
306    2        5.716587000000      10.755127000000      29.216322000000
307    3       19.258320000000      13.829608000000      34.190495000000
308    3       17.687813000000      14.170144000000      34.284958000000
309    2       18.360929000000      13.419092000000      34.348789000000
310    3        1.114797000000       0.171738000000      33.405796000000
311    3        0.371871000000       1.389411000000      34.127827000000
312    2        0.491758000000       0.379312000000      34.170223000000
313    3       11.223794000000       6.624958000000      33.942619000000
314    3        9.816632000000       7.375948000000      34.025307000000
315    2       10.492428000000       6.923604000000      34.602039000000
316    3        2.595290000000      12.412953000000       8.175432000000
317    3        4.097674000000      12.497573000000       8.486988000000
318    2        3.455801000000      12.039583000000       7.907928000000
319    3        6.839246000000       8.334802000000       1.858544000000
320    3        5.605881000000       7.834095000000       2.657291000000
321    2        6.055201000000       7.699623000000       1.774145000000
322    3        6.330878000000       9.207382000000       6.596617000000
323    3        4.808475000000       8.905531000000       7.177389000000
324    2        5.482844000000       8.595569000000       6.454865000000
325    3       11.512763000000       8.854665000000       1.620073000000
326    3       11.393929000000       9.679562000000       2.983975000000
327    2       11.002012000000       8.921969000000       2.522744000000
328    3       13.978497000000       5.965820000000      27.232737000000
329    3       15.012895000000       4.797367000000      26.756121000000
330    2       14.906760000000       5.621699000000      27.328194000000
331    3       19.963118000000      11.756651000000       4.058333000000
332    3       18.892265000000      10.700230000000       3.449703000000
333    2       19.298323000000      11.603574000000       3.341512000000
334    3        0.557815000000      11.217998000000       2.086745000000
335    3        1.520924000000      11.796391000000       0.983632000000
336    2        1.250575000000      10.981775000000       1.487625000000
337    3       10.874201000000       3.618206000000      26.631027000000
338    3       11.640408000000       3.244842000000      27.986959000000
339    2       11.736139000000       3.602509000000      27.107679000000
340    3       18.777170000000      13.302422000000      29.874105000000
341    3       17.269161000000      13.568364000000      30.518482000000
342    2       17.868408000000      12.855322000000      30.099215000000
343    3        2.273304000000       5.970694000000      32.425880000000
344    3        1.803481000000       7.000659000000      31.152689000000
345    2        2.387807000000       6.889015000000      31.927366000000
346    3        7.219216000000       3.286695000000       5.623333000000
347    3        5.990441000000       3.895279000000       4.892392000000
348    2        6.946781000000       4.189695000000       5.280741000000
349    3       16.297020000000      14.204243000000       8.527091000000
350    3       15.332227000000      13.113862000000       7.864150000000
351    2       15.824862000000      13.320017000000       8.728564000000
352    3        2.979996000000       8.603156000000       8.526503000000
353    3        3.282660000000      10.134381000000       8.120387000000
354    2        3.193899000000       9.182364000000       7.743973000000
355    3        1.721808000000      10.910275000000       4.815654000000
356    3        2.473419000000      12.315341000000       4.754229000000
357    2        1.546439000000      11.887331000000       4.693296000000
358    3        4.401813000000       2.558960000000      27.310642000000
359    3        5.357800000000       3.439345000000      26.646902000000
360    2        5.314941000000       3.016183000000      27.509598000000
361    3       19.328791000000       5.227892000000      27.781498000000
362    3       19.634287000000       6.429678000000      28.722254000000
363    2       19.395823000000       6.218797000000      27.760731000000
364    3       19.697111000000       5.100788000000       7.588854000000
365    3       19.636148000000       3.343407000000       7.264031000000
366    2       19.970388000000       4.149728000000       7.872465000000
367    3       15.328526000000       5.554508000000      28.962799000000
368    3       16.355539000000       4.875573000000      30.080360000000
369    2       15.678768000000       5.625082000000      29.897589000000
370    3       14.533932000000      11.236433000000       6.155097000000
371    3       13.622854000000      12.517551000000       6.369978000000
372    2       14.530616000000      12.265237000000       6.065543000000
373    3        5.064947000000       0.336233000000      34.257690000000
374    3        5.242396000000      13.057767000000      34.181793000000
375    2        4.648902000000      13.805483000000      33.907139000000
376    3       13.709313000000      14.310987000000      29.795351000000
377    3       13.230721000000       1.546820000000      29.640762000000
378    2       13.986496000000       0.936280000000      29.814011000000
379    3       17.364311000000       5.598251000000       6.446575000000
380    3       16.215332000000       4.600846000000       6.258998000000
381    2       16.445999000000       5.568388000000       6.016332000000
382    3       18.098394000000      12.243785000000      33.262962000000
383    3       17.866476000000      11.950104000000      31.677788000000
384    2       17.764633000000      11.567036000000      32.606308000000
385    3       16.517511000000       3.936474000000      34.864269000000
386    3       16.583389000000       5.575326000000      34.463512000000
387    2       16.493090000000       4.608974000000      34.116264000000
388    3       16.110262000000      11.865993000000       1.062825000000
389    3       14.874620000000      12.020534000000       2.016661000000
390    2       15.230712000000      11.466208000000       1.266118000000
391    3        4.944803000000      11.430034000000      32.696751000000
392    3        4.939595000000       9.851686000000      32.358261000000
393    2        4.762297000000      10.732955000000      32.003437000000
394    3       11.436518000000      13.067253000000       8.793415000000
395    3       12.674825000000      12.488567000000       9.433605000000
396    2       11.870413000000      12.212894000000       8.944315000000
397    3        2.253466000000       5.240570000000       6.075332000000
398    3        1.322616000000       4.598823000000       7.217571000000
399    2        2.233445000000       5.082513000000       7.061778000000
400    3       17.254698000000       9.191648000000       3.795991000000
401    3       18.206770000000       9.385801000000       5.062726000000
402    2       18.205597000000       9.164850000000       4.069765000000
403    3       14.273594000000      11.607924000000      34.063946000000
404    3       14.175776000000      11.821230000000      35.576126000000
405    2       13.691005000000      12.188780000000      34.760559000000
406    3       20.044012000000       5.439518000000      35.297314000000
407    3        0.572665000000       6.791175000000      35.402676000000