# File generated with Atomsk by j281j388 on 2026-06-04 11:47:52

864  atoms
3  atom types

0.000000000000      20.251000000000  xlo xhi
0.000000000000      14.320000000000  ylo yhi
0.000000000000      35.707675000000  zlo zhi

Masses

1   28.08500000             # Si
2   15.99900000             # O
3   1.00800000              # H

Atoms # atomic

1    1        2.460654000000       1.445550000000      12.790130000000
2    2        2.248799000000       1.655193000000      11.112998000000
3    3        2.065438000000       0.769480000000      10.709311000000
4    1        9.877813000000       6.840949000000      14.075254000000
5    2       10.157930000000       5.914300000000      12.710805000000
6    3       11.007261000000       5.872630000000      12.284963000000
7    1       19.931835000000       7.755583000000      12.740237000000
8    2       19.514740000000       6.857038000000      11.426326000000
9    3        0.059859000000       6.767608000000      10.851192000000
10    1        5.280447000000       7.804535000000      13.050656000000
11    2        6.034674000000       7.738316000000      11.552209000000
12    3        6.300962000000       6.750238000000      11.512837000000
13    1        7.240083000000       1.824133000000      12.893021000000
14    2        7.123723000000       3.049655000000      11.768407000000
15    3        6.223529000000       3.119567000000      11.331596000000
16    1        0.071253000000      14.268688000000      12.728224000000
17    2        1.018361000000      13.424438000000      11.556682000000
18    3        1.486002000000      12.684787000000      11.999180000000
19    1       19.757982000000       7.416385000000      23.134634000000
20    2       18.787607000000       6.405529000000      23.852377000000
21    3       17.859182000000       6.462334000000      24.096489000000
22    1        5.226885000000       7.549718000000      22.861895000000
23    2        5.752540000000       6.890828000000      24.261717000000
24    3        5.240537000000       7.244173000000      25.153614000000
25    1        2.613054000000       2.002580000000      22.753090000000
26    2        3.257948000000       2.631935000000      24.139868000000
27    3        3.275640000000       2.162592000000      25.065971000000
28    1        7.344139000000       2.551633000000      23.147224000000
29    2        7.436906000000       3.380767000000      24.591881000000
30    3        6.575954000000       3.917968000000      24.791325000000
31    1        2.375405000000       9.342429000000      12.948820000000
32    2        2.759961000000      10.827703000000      12.392404000000
33    3        3.681303000000      11.132601000000      12.220227000000
34    1        7.766870000000       9.350090000000      13.637632000000
35    2        8.216381000000      10.126740000000      12.197828000000
36    3        7.832091000000       9.652314000000      11.397891000000
37    1        4.986284000000      13.851716000000      12.829834000000
38    2        4.646170000000      12.724759000000      11.640368000000
39    3        4.524472000000      13.227319000000      10.753833000000
40    1        5.094744000000       0.208522000000      22.624908000000
41    2        4.798692000000      13.690764000000      24.024309000000
42    3        5.669106000000      13.486232000000      24.500675000000
43    1        2.319035000000       8.575863000000      23.379980000000
44    2        2.712025000000       9.163732000000      24.853991000000
45    3        3.382017000000       9.901236000000      24.858112000000
46    1       20.131304000000       0.577493000000      22.548674000000
47    2       20.048866000000      13.609935000000      23.534378000000
48    3       19.413086000000      12.986724000000      23.170525000000
49    1        7.419716000000       9.580918000000      23.316818000000
50    2        6.927402000000      10.386668000000      24.759520000000
51    3        7.219345000000      11.353793000000      24.790615000000
52    1        9.965223000000       0.909145000000      23.237074000000
53    2        9.748785000000       0.248980000000      24.697870000000
54    3       10.479917000000       0.396525000000      25.387405000000
55    1       12.837413000000       2.047505000000      13.712441000000
56    2       13.109372000000       3.370590000000      12.695148000000
57    3       14.018873000000       3.388611000000      12.218070000000
58    1       15.068592000000       7.272093000000      12.732550000000
59    2       14.755611000000       6.381940000000      11.396100000000
60    3       13.795820000000       6.126912000000      11.066910000000
61    1       17.806637000000       1.850840000000      12.289902000000
62    2       17.660526000000       2.809080000000      10.952384000000
63    3       18.512169000000       3.136407000000      10.506993000000
64    1       10.010325000000       7.643637000000      23.328526000000
65    2       10.408757000000       6.877071000000      24.756271000000
66    3       11.237360000000       7.234587000000      25.195158000000
67    1       13.006536000000       1.937999000000      23.669649000000
68    2       12.785516000000       2.264262000000      25.298574000000
69    3       12.093538000000       3.013815000000      25.330963000000
70    1       17.351099000000       2.121424000000      22.169718000000
71    2       16.721956000000       3.249450000000      23.305475000000
72    3       16.039755000000       3.875474000000      22.938360000000
73    1       15.470673000000       8.049467000000      22.842945000000
74    2       16.193190000000       7.121572000000      24.056034000000
75    3       15.736065000000       7.355667000000      24.915499000000
76    1       12.195340000000       8.902642000000      13.070951000000
77    2       11.679064000000       8.822072000000      11.530244000000
78    3       11.033514000000       9.438528000000      11.010422000000
79    1       17.276638000000       9.606585000000      12.772156000000
80    2       17.620749000000      10.428637000000      11.337936000000
81    3       17.261827000000      11.374449000000      11.404837000000
82    1       15.190944000000       0.046761000000      13.102404000000
83    2       15.161769000000      13.049502000000      12.039694000000
84    3       15.364162000000      13.310427000000      11.083798000000
85    1       10.234567000000       0.566786000000      13.278225000000
86    2       10.751286000000      14.041394000000      11.956624000000
87    3       11.598686000000      13.647002000000      12.149908000000
88    1       15.391782000000      14.130128000000      22.821934000000
89    2       16.133446000000      13.384236000000      24.138916000000
90    3       15.602240000000      13.095675000000      24.978916000000
91    1       12.628925000000       9.256021000000      22.808374000000
92    2       12.248558000000      10.096095000000      24.187176000000
93    3       11.349947000000      10.661963000000      24.145887000000
94    1       17.754395000000      10.028426000000      22.697226000000
95    2       18.121990000000      11.471255000000      23.420565000000
96    3       17.295145000000      11.940263000000      23.707077000000
97    1        0.176409000000       5.590098000000      15.069724000000
98    1        2.457942000000       2.160070000000      17.579718000000
99    1        5.192060000000       5.600101000000      15.268453000000
100    1        2.678370000000       3.615636000000      14.800679000000
101    1        7.137693000000       3.118240000000      15.924339000000
102    1       20.085711000000       0.493654000000      17.582590000000
103    1        2.781499000000       4.003802000000      20.242882000000
104    1        0.234850000000       5.787021000000      20.526926000000
105    1        5.577837000000       5.530234000000      20.329411000000
106    1        7.959934000000       3.562245000000      20.448839000000
107    1        6.911653000000       1.062726000000      18.318771000000
108    1        5.076949000000      12.412143000000      15.491830000000
109    1        7.806700000000      11.064717000000      16.290422000000
110    1       20.029566000000      12.690466000000      15.333328000000
111    1        2.442855000000      10.859682000000      15.600113000000
112    1        7.877076000000       8.657140000000      18.394482000000
113    1        4.278654000000      13.912085000000      18.103268000000
114    1        0.117421000000       7.345019000000      17.718817000000
115    1        2.348012000000      10.817180000000      21.124491000000
116    1        0.288901000000      13.122930000000      20.098394000000
117    1        4.960795000000      12.268715000000      20.504129000000
118    1        7.802753000000      10.814588000000      20.562845000000
119    1        2.551085000000       9.397223000000      18.254536000000
120    1        5.062256000000       7.480656000000      17.804375000000
121    1        9.949486000000       4.756081000000      16.471886000000
122    1       15.330639000000       7.046778000000      17.420898000000
123    1       15.620035000000       5.253366000000      15.123914000000
124    1       18.011808000000       3.443466000000      14.930169000000
125    1       12.869310000000       3.889999000000      15.983519000000
126    1       13.002846000000       4.464399000000      21.948345000000
127    1       15.455486000000       6.218275000000      20.419254000000
128    1       17.943045000000       4.211880000000      19.989025000000
129    1       17.629698000000       2.270216000000      17.768047000000
130    1       10.424055000000       5.470715000000      21.453573000000
131    1       12.861167000000       3.865576000000      19.159491000000
132    1       14.687757000000       1.009291000000      18.378178000000
133    1       10.154283000000      12.969640000000      15.900207000000
134    1       12.526364000000      10.891264000000      15.247853000000
135    1       17.682467000000       9.058251000000      17.546568000000
136    1       17.274704000000      11.091985000000      15.469246000000
137    1       15.006170000000      13.036262000000      15.971963000000
138    1       11.630371000000       6.133909000000      18.716841000000
139    1       12.739747000000       7.669269000000      15.563966000000
140    1       12.444283000000      10.985167000000      20.299812000000
141    1       10.038586000000      13.120826000000      20.696486000000
142    1       14.994688000000      12.761684000000      20.156897000000
143    1       17.883642000000      11.336791000000      19.780186000000
144    1        9.923307000000       0.677000000000      18.248289000000
145    2        6.543171000000       2.152845000000      17.139555000000
146    2        6.854856000000       2.438724000000      14.436302000000
147    2        6.216060000000       0.558922000000      12.333141000000
148    2        0.845751000000       1.818877000000      17.504396000000
149    2        8.610852000000       3.762453000000      16.466997000000
150    2        0.665992000000       6.242622000000      16.556793000000
151    2        6.193175000000       4.523541000000      15.913647000000
152    2        1.018856000000       1.078988000000      13.506746000000
153    2        3.524537000000       0.283835000000      13.216403000000
154    2        2.922587000000       2.962272000000      13.360176000000
155    2        3.738157000000       4.861287000000      14.982050000000
156    2        2.943686000000       2.503476000000      16.038513000000
157    2        1.149139000000       4.268027000000      14.821678000000
158    2        5.151598000000       6.863588000000      16.271797000000
159    2        5.554759000000       6.315354000000      13.741529000000
160    2        8.748946000000       1.235402000000      12.859576000000
161    2        3.194132000000       0.842641000000      18.229336000000
162    2        0.346765000000       6.768193000000      13.889586000000
163    2        2.645788000000       3.450275000000      18.635649000000
164    2        1.819644000000       5.334312000000      20.427723000000
165    2        4.266571000000       4.518268000000      20.721067000000
166    2        2.246877000000       3.065164000000      21.554001000000
167    2       20.151314000000       6.879417000000      21.621601000000
168    2        3.749148000000       0.938633000000      22.105255000000
169    2        1.234402000000       1.243076000000      23.245539000000
170    2        5.739081000000       6.543605000000      21.621290000000
171    2        4.911212000000       6.293618000000      18.950876000000
172    2        7.692334000000       2.085306000000      19.661434000000
173    2        9.500730000000       4.178308000000      20.962303000000
174    2        7.031866000000       4.905986000000      19.789345000000
175    2        6.963412000000       3.442813000000      21.850538000000
176    2        6.442419000000       1.154238000000      23.079586000000
177    2       20.106171000000       6.538495000000      19.113480000000
178    2        8.963490000000       2.168798000000      23.117886000000
179    2        8.312821000000       0.263615000000      17.944746000000
180    2       11.442275000000       6.437635000000      20.309149000000
181    2        5.651956000000       0.206132000000      18.817549000000
182    2        8.263442000000      10.351342000000      14.824631000000
183    2       19.821377000000      14.120175000000      16.114668000000
184    2        4.414669000000      13.589265000000      16.477827000000
185    2       19.696980000000      13.153005000000      13.790325000000
186    2        3.687069000000       8.231015000000      12.800181000000
187    2        0.990439000000       8.718832000000      12.278456000000
188    2        1.328231000000      12.087140000000      15.335960000000
189    2        2.106619000000       9.500031000000      14.692945000000
190    2        3.857208000000      11.468425000000      14.962886000000
191    2        2.438812000000      10.670487000000      17.242624000000
192    2        8.660637000000       7.327027000000      17.936190000000
193    2        8.160781000000      10.045766000000      17.493565000000
194    2        6.239959000000      11.633053000000      16.346992000000
195    2        5.634067000000      12.921710000000      14.049607000000
196    2        8.605097000000      12.503021000000      16.304157000000
197    2        6.141714000000       9.001878000000      13.849327000000
198    2        8.746026000000       7.932500000000      13.662520000000
199    2        1.018833000000       8.702310000000      18.107449000000
200    2        2.596026000000       9.872499000000      19.827505000000
201    2        1.260669000000      12.041961000000      20.874550000000
202    2        3.805530000000      11.621254000000      21.514608000000
203    2        1.961134000000       9.930901000000      22.460497000000
204    2        0.577904000000      13.690082000000      18.579918000000
205    2        5.552298000000      13.582940000000      21.331017000000
206    2        4.136715000000      12.534032000000      19.003235000000
207    2        8.104197000000       9.317590000000      19.982708000000
208    2        8.630026000000      12.282646000000      20.289499000000
209    2        6.294400000000      11.283070000000      20.033070000000
210    2        7.985924000000      10.707991000000      22.226173000000
211    2        6.001690000000       9.007730000000      22.611132000000
212    2        3.606724000000       7.662010000000      22.813101000000
213    2        3.701052000000       8.453235000000      17.628298000000
214    2        1.015285000000       7.682651000000      23.866371000000
215    2        6.176532000000       8.608041000000      18.229364000000
216    2        8.646484000000       8.547287000000      23.585148000000
217    2        0.246552000000       0.140806000000      21.038216000000
218    2       10.201105000000       2.299237000000      18.140554000000
219    2       19.039463000000       0.726243000000      11.881556000000
220    2       18.905558000000       4.856238000000      15.015860000000
221    2       18.657684000000       0.997287000000      18.299019000000
222    2       18.473404000000       2.574564000000      13.633492000000
223    2       17.865807000000       2.308624000000      16.129616000000
224    2       11.226512000000       1.878647000000      13.470870000000
225    2       13.675883000000       0.788493000000      13.080404000000
226    2       10.519239000000       4.935505000000      18.153708000000
227    2       13.092381000000       2.344487000000      15.310672000000
228    2       13.382282000000       4.377549000000      17.606909000000
229    2       13.911015000000       4.925109000000      15.204218000000
230    2       11.270182000000       4.082126000000      15.689958000000
231    2       16.262390000000       1.223048000000      12.638171000000
232    2       15.794997000000       6.428799000000      13.903899000000
233    2       16.205561000000       5.860607000000      16.598623000000
234    2       16.428167000000       3.956520000000      14.576548000000
235    2        9.576286000000       6.135813000000      15.550488000000
236    2       12.238734000000       3.661895000000      20.651821000000
237    2       11.730778000000       5.329563000000      22.516928000000
238    2       14.388243000000       5.252511000000      21.269705000000
239    2       13.555142000000       3.396992000000      23.048355000000
240    2       14.194006000000       0.833381000000      23.375639000000
241    2       11.479636000000       1.571112000000      23.077272000000
242    2       15.847928000000       7.581929000000      21.280651000000
243    2       14.699307000000       6.449472000000      18.900734000000
244    2       18.152365000000       3.751061000000      18.367855000000
245    2       19.422821000000       4.549096000000      20.590008000000
246    2       16.841076000000       5.385992000000      20.294111000000
247    2       17.393579000000       2.814569000000      20.673279000000
248    2       18.869141000000       1.671040000000      22.642879000000
249    2       16.040838000000       2.020190000000      18.227880000000
250    2        9.402626000000       6.375324000000      22.309011000000
251    2       16.517584000000       0.738650000000      21.956974000000
252    2       13.606782000000       2.343689000000      18.921047000000
253    2       16.404835000000       8.114532000000      18.067316000000
254    2       15.974895000000       8.632838000000      12.340577000000
255    2       10.767288000000      14.063625000000      16.967932000000
256    2       18.599504000000       8.624165000000      13.210389000000
257    2       18.838861000000       7.982219000000      17.292706000000
258    2       13.580993000000       7.932531000000      13.096155000000
259    2       11.375341000000       7.762019000000      14.331604000000
260    2       12.572592000000       9.331996000000      15.835670000000
261    2       12.539168000000      10.449359000000      13.555351000000
262    2       13.653233000000      12.004396000000      15.809961000000
263    2       11.048206000000      11.634301000000      15.524336000000
264    2       15.444738000000      13.886803000000      14.634672000000
265    2       10.048203000000      13.818913000000      14.459594000000
266    2       17.159084000000       9.545091000000      16.008013000000
267    2       14.537593000000      14.203644000000      17.104586000000
268    2       16.361315000000      12.140394000000      16.325663000000
269    2       16.826771000000      10.807898000000      13.846576000000
270    2       18.834179000000      11.620520000000      15.649737000000
271    2       12.120987000000       6.895597000000      17.377462000000
272    2       11.717121000000      10.068113000000      19.235352000000
273    2       11.404328000000      12.136509000000      21.088144000000
274    2       13.716118000000      11.907969000000      19.635046000000
275    2       13.307922000000      10.197428000000      21.621794000000
276    2       13.883756000000       8.160745000000      23.031975000000
277    2        9.748562000000      13.981400000000      22.092928000000
278    2       11.335322000000       8.244825000000      22.455149000000
279    2       10.557934000000      14.259227000000      19.644653000000
280    2       14.767364000000       0.083951000000      19.757351000000
281    2       14.949037000000      12.888659000000      21.869513000000
282    2       18.039549000000      10.370068000000      18.447102000000
283    2       18.996853000000      12.458200000000      20.155708000000
284    2       16.416254000000      12.183299000000      19.585564000000
285    2       17.852112000000      10.274335000000      21.058178000000
286    2       18.980253000000       8.886641000000      23.062180000000
287    2       16.183531000000       9.614378000000      23.098486000000
288    2       14.291180000000       7.579065000000      16.204706000000
289    3       16.035189000000      12.182155000000      26.563087000000
290    3       14.776375000000      11.536483000000      26.131807000000
291    2       15.111113000000      12.500667000000      26.241369000000
292    3        0.020309000000      13.260068000000      27.269585000000
293    3        0.802401000000      12.330394000000      28.332211000000
294    2        0.253367000000      13.191628000000      28.245867000000
295    3       16.175716000000       7.138676000000      29.694345000000
296    3       16.778267000000       7.997351000000      28.507269000000
297    2       16.340519000000       8.065244000000      29.432577000000
298    3       13.019361000000      12.200187000000       3.153813000000
299    3       11.991302000000      11.977283000000       4.223110000000
300    2       12.114117000000      11.755717000000       3.296079000000
301    3        1.623310000000       2.785305000000      31.619314000000
302    3        0.374847000000       3.478205000000      32.230366000000
303    2        1.276405000000       3.114166000000      32.503010000000
304    3        5.328544000000      11.008390000000      28.275658000000
305    3        5.966264000000      11.066468000000      29.556862000000
306    2        6.207822000000      10.700162000000      28.666666000000
307    3       20.116203000000      14.025354000000      33.956825000000
308    3       18.527021000000      14.188652000000      33.849319000000
309    2       19.273512000000      13.501028000000      33.946136000000
310    3        1.877291000000      14.309731000000      32.930946000000
311    3        1.448115000000       1.334905000000      33.208004000000
312    2        1.387701000000       0.466444000000      33.667866000000
313    3       11.356721000000       7.332352000000      33.601532000000
314    3        9.982237000000       8.184161000000      33.654381000000
315    2       10.599028000000       7.603560000000      34.186558000000
316    3        2.035335000000      12.087852000000       7.065104000000
317    3        3.277153000000      12.485491000000       8.051254000000
318    2        3.058263000000      11.961540000000       7.273999000000
319    3        7.225297000000       8.609182000000       1.400316000000
320    3        5.908272000000       7.983951000000       2.031281000000
321    2        6.409312000000       8.071067000000       1.159937000000
322    3        6.203020000000       9.309400000000       6.155568000000
323    3        4.683016000000       8.904831000000       6.617755000000
324    2        5.542751000000       8.485574000000       6.109359000000
325    3       11.633445000000       9.519027000000       1.382479000000
326    3       11.352008000000      10.386224000000       2.635634000000
327    2       11.033236000000       9.568911000000       2.190721000000
328    3       13.962955000000       5.115532000000      27.584543000000
329    3       15.176529000000       4.196882000000      27.155357000000
330    2       14.932711000000       5.074880000000      27.530001000000
331    3        0.070580000000      11.566765000000       2.753231000000
332    3       19.211147000000      10.555664000000       2.404487000000
333    2       19.709436000000      11.300365000000       2.012713000000
334    3        0.160435000000      11.061050000000      35.544724000000
335    3        1.397874000000      11.989142000000      35.651890000000
336    2        1.149718000000      10.998047000000      35.386448000000
337    3       11.644380000000       4.557592000000      27.025982000000
338    3       11.939906000000       4.670001000000      28.615643000000
339    2       12.130334000000       5.085017000000      27.716595000000
340    3       19.284639000000      12.880084000000      29.524059000000
341    3       17.929935000000      13.586062000000      30.201666000000
342    2       18.352816000000      12.754826000000      29.843891000000
343    3        2.575713000000       6.656819000000      32.326378000000
344    3        1.859274000000       7.574372000000      31.207312000000
345    2        2.679445000000       7.502386000000      31.837175000000
346    3        6.794965000000       3.737278000000       5.335738000000
347    3        5.502709000000       4.232083000000       4.628970000000
348    2        6.378529000000       4.571716000000       5.003608000000
349    3       16.713085000000      13.950447000000       8.804147000000
350    3       15.614524000000      13.109994000000       8.378709000000
351    2       15.948114000000      13.440705000000       9.251007000000
352    3        3.412296000000       9.061184000000       8.530435000000
353    3        3.360172000000      10.291573000000       7.517987000000
354    2        3.362118000000       9.317573000000       7.576987000000
355    3        1.437832000000      10.263075000000       4.534169000000
356    3        1.956516000000      11.402190000000       3.708984000000
357    2        1.115590000000      11.114745000000       4.085706000000
358    3        6.083989000000       1.850413000000      27.599998000000
359    3        5.510170000000       3.149589000000      26.759159000000
360    2        6.077007000000       2.870362000000      27.541332000000
361    3       20.159531000000       4.697438000000      28.038588000000
362    3        0.140582000000       5.847206000000      29.244024000000
363    2        0.382700000000       5.542109000000      28.323429000000
364    3       19.550436000000       4.521086000000       6.589431000000
365    3       19.866796000000       2.975861000000       6.741216000000
366    2       20.120329000000       3.869241000000       7.117825000000
367    3       15.625216000000       5.121579000000      28.971277000000
368    3       16.568039000000       4.643352000000      30.110270000000
369    2       15.883327000000       5.338485000000      29.907053000000
370    3       15.136044000000      11.801918000000       6.097200000000
371    3       14.059803000000      12.934303000000       6.272923000000
372    2       15.016075000000      12.784395000000       6.160052000000
373    3        5.895434000000       0.249129000000      32.872772000000
374    3        5.600897000000      13.127785000000      33.445351000000
375    2        5.607455000000      13.653526000000      32.610901000000
376    3       13.341164000000       0.757540000000      31.185980000000
377    3       13.380625000000       2.116624000000      30.451292000000
378    2       13.925380000000       1.338211000000      30.674221000000
379    3       17.005501000000       4.903784000000       5.769348000000
380    3       16.157072000000       3.653445000000       6.158671000000
381    2       16.064760000000       4.575795000000       5.681169000000
382    3       18.576597000000      11.920379000000      32.937664000000
383    3       18.456696000000      11.870757000000      31.278505000000
384    2       18.110931000000      11.444057000000      32.154106000000
385    3       16.919533000000       4.416901000000      34.450855000000
386    3       16.584435000000       5.960539000000      34.216873000000
387    2       16.734880000000       5.096925000000      33.759613000000
388    3       16.576704000000      12.031405000000       0.826296000000
389    3       15.288482000000      12.085143000000       1.846078000000
390    2       15.683552000000      11.672696000000       1.028321000000
391    3        5.787644000000      11.689185000000      31.981903000000
392    3        5.410141000000      10.112676000000      31.806488000000
393    2        5.386049000000      11.075259000000      31.356880000000
394    3       10.149076000000      13.196614000000       8.463324000000
395    3       10.818165000000      13.519416000000       9.764812000000
396    2       10.774737000000      12.807730000000       9.115766000000
397    3        2.196377000000       5.431566000000       6.137439000000
398    3        1.660926000000       4.209902000000       7.017716000000
399    2        2.366412000000       4.938907000000       7.030581000000
400    3       17.709570000000       9.273103000000       3.529784000000
401    3       18.839872000000       9.022871000000       4.643754000000
402    2       18.713341000000       9.080086000000       3.656213000000
403    3       14.664753000000      12.588842000000      33.703709000000
404    3       14.707063000000      12.509721000000      35.242584000000
405    2       14.137440000000      12.906125000000      34.494740000000
406    3       20.153261000000       6.631233000000      35.260643000000
407    3        1.004951000000       7.696573000000      35.126930000000