# File generated with Atomsk by j281j388 on 2026-06-04 11:47:54

864  atoms
3  atom types

0.000000000000      20.251000000000  xlo xhi
0.000000000000      14.320000000000  ylo yhi
0.000000000000      35.707675000000  zlo zhi

Masses

1   28.08500000             # Si
2   15.99900000             # O
3   1.00800000              # H

Atoms # atomic

1    1        2.447285000000       1.973238000000      12.398229000000
2    2        1.987073000000       2.802889000000      11.062300000000
3    3        1.067711000000       3.279537000000      10.978246000000
4    1       10.401171000000       7.847201000000      12.276498000000
5    2       10.434977000000       7.172368000000      10.769554000000
6    3       11.248210000000       6.554941000000      10.887476000000
7    1        0.175328000000       7.421633000000      12.765431000000
8    2        0.384268000000       6.622828000000      11.261814000000
9    3        1.317319000000       6.579824000000      10.813131000000
10    1        5.380525000000       7.380861000000      12.435882000000
11    2        5.037314000000       6.390611000000      11.248373000000
12    3        5.889677000000       6.143468000000      10.754461000000
13    1        8.219175000000       1.735082000000      12.607408000000
14    2        8.162327000000       2.281623000000      10.985536000000
15    3        7.215361000000       2.343565000000      10.665010000000
16    1        0.092322000000       0.229266000000      12.922404000000
17    2       19.701672000000      13.710583000000      11.630337000000
18    3       18.831787000000      14.183810000000      11.452319000000
19    1       20.232426000000       8.147134000000      22.530973000000
20    2       19.947094000000       7.150543000000      23.801126000000
21    3       19.118858000000       6.645122000000      23.873186000000
22    1        5.081511000000       7.488923000000      23.017042000000
23    2        4.949174000000       6.596703000000      24.430876000000
24    3        4.703463000000       7.080102000000      25.265657000000
25    1        3.029190000000       1.783444000000      22.752121000000
26    2        3.338192000000       2.877385000000      23.921249000000
27    3        2.735420000000       2.695124000000      24.740097000000
28    1        8.282555000000       2.407152000000      22.929832000000
29    2        7.724261000000       3.393089000000      24.139175000000
30    3        6.771275000000       3.706059000000      24.480021000000
31    1        2.632909000000       9.071839000000      12.683918000000
32    2        2.073556000000       9.388724000000      11.124828000000
33    3        1.937724000000      10.365909000000      11.030596000000
34    1        7.679827000000       9.477889000000      12.443784000000
35    2        7.595899000000      10.805663000000      11.400711000000
36    3        6.717485000000      11.186443000000      11.445731000000
37    1        5.204949000000       0.459162000000      12.875587000000
38    2        5.239408000000      13.424753000000      11.924897000000
39    3        5.125554000000      13.485919000000      10.912466000000
40    1        5.907426000000       0.365057000000      22.580267000000
41    2        5.761676000000      14.109481000000      24.197224000000
42    3        6.536477000000      14.200595000000      24.881529000000
43    1        2.788431000000       9.646749000000      22.591526000000
44    2        2.590159000000      10.941503000000      23.660095000000
45    3        3.399385000000      11.448511000000      24.015190000000
46    1        0.557376000000      14.224588000000      23.379856000000
47    2        0.009342000000      13.474899000000      24.800556000000
48    3        0.159554000000      12.505531000000      24.937733000000
49    1        7.817467000000       9.016248000000      22.627169000000
50    2        7.895244000000       9.801464000000      24.023911000000
51    3        8.754702000000      10.126136000000      24.361988000000
52    1       10.521985000000       0.166290000000      22.968580000000
53    2       10.371916000000      13.676159000000      24.363905000000
54    3       10.816958000000      14.152750000000      25.169157000000
55    1       13.077710000000       1.775987000000      12.191193000000
56    2       12.233009000000       2.143659000000      10.822946000000
57    3       12.499464000000       1.615883000000       9.990671000000
58    1       15.473232000000       7.435573000000      12.927004000000
59    2       14.984692000000       6.441792000000      11.641284000000
60    3       14.189629000000       5.814497000000      11.789874000000
61    1       18.023483000000       2.408480000000      12.585960000000
62    2       18.031887000000       3.066080000000      11.088238000000
63    3       18.922699000000       3.614857000000      10.918731000000
64    1       10.545217000000       7.259583000000      22.390720000000
65    2       10.690636000000       5.739947000000      23.032965000000
66    3       10.988312000000       5.855079000000      23.953707000000
67    1       12.873545000000       1.935389000000      21.997976000000
68    2       12.402006000000       3.331859000000      22.769751000000
69    3       11.684809000000       3.907894000000      22.372856000000
70    1       18.112793000000       1.740804000000      23.116991000000
71    2       18.039839000000       2.610296000000      24.570375000000
72    3       17.622459000000       3.531722000000      24.558756000000
73    1       15.667064000000       7.312080000000      22.781326000000
74    2       16.473026000000       6.509511000000      23.967911000000
75    3       16.267948000000       6.806066000000      24.915890000000
76    1       12.971259000000       9.316691000000      13.367216000000
77    2       13.021324000000      10.624671000000      12.295044000000
78    3       12.510172000000      10.466035000000      11.457620000000
79    1       18.027319000000       9.256689000000      12.562532000000
80    2       17.795586000000      10.461932000000      11.468742000000
81    3       17.033682000000      11.131571000000      11.585736000000
82    1       15.761574000000       0.105446000000      12.236145000000
83    2       16.345037000000      13.264288000000      11.232074000000
84    3       16.152586000000      13.012041000000      10.225705000000
85    1       10.892720000000      14.145957000000      13.165599000000
86    2       11.107880000000      12.993913000000      11.966737000000
87    3       11.831021000000      12.387638000000      12.152159000000
88    1       15.295441000000       0.267346000000      22.644070000000
89    2       14.855790000000      13.780945000000      24.058538000000
90    3       14.009902000000      13.442755000000      23.815342000000
91    1       12.989762000000       9.296976000000      23.301411000000
92    2       12.747187000000       9.817654000000      24.861710000000
93    3       11.788010000000       9.960453000000      25.051937000000
94    1       17.469515000000       9.634987000000      22.597984000000
95    2       17.040205000000      10.038411000000      24.148670000000
96    3       16.324451000000       9.522856000000      24.540003000000
97    1        0.154544000000       5.567586000000      15.242668000000
98    1        2.238902000000       2.392276000000      17.758322000000
99    1        5.543854000000       5.425016000000      14.973015000000
100    1        2.783704000000       3.900868000000      14.949211000000
101    1        8.425229000000       3.909792000000      15.040326000000
102    1       20.141951000000       0.300516000000      17.960997000000
103    1        2.342918000000       3.794359000000      20.627586000000
104    1        0.039818000000       5.818065000000      20.429653000000
105    1        5.019199000000       5.513193000000      20.569180000000
106    1        7.892249000000       4.228359000000      20.475624000000
107    1        7.672597000000       2.359220000000      17.781660000000
108    1        5.291294000000      13.019791000000      15.410569000000
109    1        7.721779000000      10.923885000000      15.228239000000
110    1        0.094960000000      12.700097000000      15.498835000000
111    1        2.793824000000      11.039802000000      15.012267000000
112    1        8.096418000000       8.776293000000      17.499096000000
113    1        5.064081000000       0.762552000000      17.972231000000
114    1        0.031832000000       7.349453000000      17.857685000000
115    1        2.931031000000      11.152289000000      19.942934000000
116    1        0.395076000000      12.990531000000      20.490797000000
117    1        5.537982000000      12.918028000000      20.108164000000
118    1        7.879581000000      10.851505000000      20.016134000000
119    1        2.787682000000       9.120305000000      17.480013000000
120    1        5.307278000000       7.038548000000      17.624592000000
121    1       10.831454000000       5.858596000000      14.554611000000
122    1       14.911857000000       7.335081000000      18.462805000000
123    1       15.392230000000       5.759140000000      15.536348000000
124    1       17.865374000000       3.807577000000      15.460769000000
125    1       13.045292000000       3.965784000000      14.307021000000
126    1       12.616055000000       3.258731000000      19.273544000000
127    1       15.102245000000       5.199048000000      20.531286000000
128    1       17.814623000000       3.800519000000      20.594234000000
129    1       17.405439000000       1.926371000000      17.923136000000
130    1       10.390450000000       5.536139000000      19.349226000000
131    1       12.017424000000       1.889728000000      16.303562000000
132    1       14.702590000000       0.289965000000      17.371286000000
133    1       10.303964000000      12.418454000000      15.810801000000
134    1       13.024101000000      10.807254000000      15.914063000000
135    1       17.511023000000       9.133836000000      18.321098000000
136    1       17.868715000000      10.581357000000      15.371446000000
137    1       15.337582000000      12.733496000000      14.969174000000
138    1       11.068965000000       7.576837000000      17.018747000000
139    1       11.857473000000       8.000611000000      19.957203000000
140    1       12.753632000000      10.944619000000      20.839905000000
141    1       10.328562000000      12.971836000000      20.353083000000
142    1       14.893764000000      12.739619000000      19.893387000000
143    1       17.725758000000      11.569909000000      20.202087000000
144    1        9.814188000000       0.256363000000      17.790386000000
145    2        8.322956000000       2.996610000000      16.411917000000
146    2        8.490891000000       3.118092000000      13.500900000000
147    2        6.711539000000       1.194489000000      12.902430000000
148    2        0.766741000000       1.670462000000      17.398890000000
149    2        9.815636000000       4.766636000000      15.217095000000
150    2        0.021821000000       6.752786000000      16.322660000000
151    2        7.099977000000       4.874163000000      15.148512000000
152    2        1.689329000000       0.523887000000      12.487018000000
153    2        4.125540000000       1.714147000000      12.354694000000
154    2        2.226437000000       2.859456000000      13.807180000000
155    2        4.429665000000       4.246650000000      14.619586000000
156    2        2.664627000000       3.350388000000      16.509031000000
157    2        1.744598000000       5.179326000000      15.007166000000
158    2        4.978405000000       5.942994000000      16.447157000000
159    2        5.712724000000       6.587623000000      13.868835000000
160    2        9.502618000000       0.637431000000      12.653323000000
161    2        3.390990000000       1.210674000000      17.931967000000
162    2       19.814503000000       6.202827000000      13.860404000000
163    2        2.035964000000       3.397298000000      19.077919000000
164    2        1.309972000000       4.993374000000      21.190582000000
165    2        3.899718000000       4.235314000000      20.934914000000
166    2        2.231761000000       2.409933000000      21.427980000000
167    2       20.167143000000       7.371262000000      21.071812000000
168    2        4.534919000000       1.276268000000      22.264614000000
169    2        2.142734000000       0.593113000000      23.510773000000
170    2        4.542853000000       6.800889000000      21.548832000000
171    2        5.075147000000       6.172594000000      19.041491000000
172    2        7.730208000000       3.457559000000      18.993114000000
173    2        8.868969000000       5.439909000000      19.948795000000
174    2        6.504800000000       4.961215000000      20.961838000000
175    2        8.706748000000       3.445957000000      21.679880000000
176    2        7.095105000000       1.440788000000      22.307236000000
177    2        0.265236000000       6.039652000000      18.825146000000
178    2        9.605273000000       1.540282000000      23.300741000000
179    2        8.339945000000       0.867397000000      18.108351000000
180    2       10.794991000000       6.054718000000      17.864477000000
181    2        5.989835000000       2.092916000000      17.675556000000
182    2        7.187234000000      10.040741000000      13.890739000000
183    2       20.141918000000      13.189886000000      17.102497000000
184    2        5.221930000000      13.775669000000      16.914394000000
185    2       20.000099000000      13.883577000000      14.380123000000
186    2        4.085779000000       8.339771000000      12.720907000000
187    2        1.650184000000       7.982082000000      13.400998000000
188    2        1.651344000000      12.316998000000      15.183488000000
189    2        2.639249000000      10.551691000000      13.435395000000
190    2        4.240067000000      11.698731000000      15.324155000000
191    2        2.518524000000       9.637179000000      15.924393000000
192    2        9.400006000000       8.074234000000      16.759474000000
193    2        7.446920000000      10.017577000000      16.534681000000
194    2        6.823445000000      12.336040000000      15.354552000000
195    2        4.782396000000      14.221281000000      14.375091000000
196    2        9.332379000000      11.263835000000      15.142092000000
197    2        6.779509000000       8.233817000000      11.904580000000
198    2        9.368893000000       9.109028000000      12.377912000000
199    2        1.405978000000       8.236490000000      18.030489000000
200    2        3.008213000000      10.429753000000      18.469276000000
201    2        1.301090000000      11.631986000000      20.116928000000
202    2        3.904247000000      12.477719000000      20.033260000000
203    2        3.277543000000      10.009283000000      21.060467000000
204    2        0.473047000000       0.010739000000      19.492762000000
205    2        6.010443000000      13.249088000000      21.699314000000
206    2        5.459915000000       0.195939000000      19.485626000000
207    2        8.375512000000       9.547984000000      18.988415000000
208    2        9.218486000000      11.863004000000      19.983253000000
209    2        6.578531000000      11.789692000000      19.448898000000
210    2        7.516201000000      10.104810000000      21.414436000000
211    2        6.693718000000       7.831650000000      22.867077000000
212    2        4.081100000000       8.818186000000      23.271759000000
213    2        4.155614000000       8.206933000000      17.471333000000
214    2        1.433963000000       8.783103000000      22.825819000000
215    2        6.890073000000       7.610901000000      17.810736000000
216    2        9.276875000000       8.181698000000      22.118803000000
217    2        0.851772000000      13.223994000000      22.057556000000
218    2       10.592354000000       1.223543000000      16.697527000000
219    2       19.583735000000       1.738529000000      12.904921000000
220    2       19.421570000000       4.270006000000      15.642491000000
221    2       18.466801000000       0.638296000000      18.094013000000
222    2       17.624800000000       3.454907000000      13.836114000000
223    2       17.627659000000       2.447694000000      16.372055000000
224    2       12.170068000000       0.847641000000      13.284021000000
225    2       14.564669000000       1.114098000000      11.601839000000
226    2       11.535975000000       7.051149000000      15.518993000000
227    2       13.451636000000       3.204294000000      12.917991000000
228    2       12.048765000000       2.934959000000      15.049317000000
229    2       14.388560000000       4.446083000000      15.142306000000
230    2       12.136154000000       5.187878000000      13.822234000000
231    2       17.035931000000       1.111423000000      12.660883000000
232    2       15.945545000000       6.677288000000      14.324356000000
233    2       14.855213000000       6.891598000000      16.769693000000
234    2       16.825438000000       4.966420000000      16.022449000000
235    2        9.952791000000       6.656240000000      13.385393000000
236    2       12.455297000000       2.758267000000      17.679853000000
237    2       11.193115000000       4.122798000000      19.582857000000
238    2       13.795182000000       4.207026000000      19.995550000000
239    2       12.555230000000       2.010145000000      20.385588000000
240    2       14.471616000000       1.782972000000      22.500908000000
241    2       12.107019000000       0.583784000000      22.615602000000
242    2       14.789358000000       6.276429000000      21.776733000000
243    2       15.704637000000       6.021412000000      19.244402000000
244    2       17.818539000000       2.995575000000      19.113554000000
245    2       18.819023000000       5.129755000000      20.588636000000
246    2       16.355310000000       4.246841000000      21.158552000000
247    2       18.317017000000       2.770972000000      21.795650000000
248    2       19.558075000000       0.935865000000      23.234125000000
249    2       15.767087000000       1.457321000000      17.951151000000
250    2       10.905226000000       6.785788000000      20.615730000000
251    2       16.884323000000       0.563583000000      22.880047000000
252    2       13.391008000000       0.824583000000      16.423685000000
253    2       16.047531000000       8.528473000000      18.643614000000
254    2       16.778006000000       8.166480000000      12.194149000000
255    2        9.400167000000      13.119178000000      17.026503000000
256    2       19.485367000000       8.675518000000      12.199733000000
257    2       18.841812000000       8.001760000000      18.350603000000
258    2       14.451443000000       8.548343000000      13.652044000000
259    2       11.932346000000       8.227869000000      12.697161000000
260    2       13.791479000000      10.244751000000      17.223228000000
261    2       12.406757000000       9.634812000000      14.887149000000
262    2       13.865940000000      11.900144000000      14.896572000000
263    2       11.578642000000      11.626248000000      16.487852000000
264    2       15.316471000000      13.776129000000      13.646716000000
265    2       10.725794000000      13.528688000000      14.680587000000
266    2       17.489344000000       9.888309000000      16.784021000000
267    2       15.606561000000      13.649492000000      16.285961000000
268    2       16.701036000000      11.703699000000      14.814804000000
269    2       17.999428000000       9.500809000000      14.187175000000
270    2       19.266508000000      11.447302000000      15.315176000000
271    2       11.481994000000       8.446498000000      18.408987000000
272    2       11.976598000000       9.521546000000      20.516220000000
273    2       11.819703000000      12.336979000000      20.668180000000
274    2       14.062201000000      11.354049000000      19.947227000000
275    2       13.268233000000      10.694440000000      22.428734000000
276    2       14.359031000000       8.355618000000      23.231796000000
277    2        9.766725000000      13.654851000000      21.770555000000
278    2       11.840065000000       8.160646000000      22.862160000000
279    2       10.680079000000      14.180303000000      19.188772000000
280    2       14.261461000000      13.704669000000      18.654436000000
281    2       14.840866000000      13.777606000000      21.270544000000
282    2       18.133430000000      10.233747000000      19.343775000000
283    2       19.038303000000      12.495348000000      20.442198000000
284    2       16.497440000000      12.454128000000      19.552692000000
285    2       17.136879000000      10.933763000000      21.647442000000
286    2       19.175365000000       9.451936000000      22.587862000000
287    2       16.821373000000       8.244919000000      22.011461000000
288    2       13.497275000000       7.468578000000      19.466679000000
289    3       15.456887000000      12.049955000000      27.822144000000
290    3       14.625344000000      11.212443000000      26.747013000000
291    2       14.682548000000      12.074455000000      27.221403000000
292    3       19.337126000000      13.844393000000      28.191290000000
293    3        0.476536000000      13.221026000000      28.705080000000
294    2       19.972588000000      13.812098000000      29.012817000000
295    3       15.587845000000       7.152544000000      30.478380000000
296    3       16.586691000000       8.267562000000      30.114254000000
297    2       15.909415000000       8.016412000000      30.828247000000
298    3       12.554905000000      12.217106000000       3.442140000000
299    3       11.280306000000      11.986946000000       4.379618000000
300    2       11.623931000000      11.887359000000       3.410988000000
301    3        1.121837000000       3.069879000000      32.616234000000
302    3       19.977690000000       3.618939000000      33.097492000000
303    2        0.531851000000       3.159338000000      33.409786000000
304    3        4.943278000000      11.273981000000      28.572659000000
305    3        5.704619000000      10.617907000000      29.868263000000
306    2        5.710073000000      10.760531000000      28.906061000000
307    3       19.496206000000      13.870161000000      34.191818000000
308    3       17.961193000000       0.023258000000      34.249332000000
309    2       18.626713000000      13.668267000000      34.572083000000
310    3        1.590785000000       0.155541000000      33.609791000000
311    3        0.682014000000       1.222469000000      34.147934000000
312    2        0.886422000000       0.281528000000      34.332233000000
313    3       10.951654000000       6.931688000000      33.875805000000
314    3        9.730247000000       7.926889000000      34.019592000000
315    2       10.282853000000       7.279600000000      34.494579000000
316    3        2.189003000000      12.623010000000       8.013796000000
317    3        3.591891000000      12.875587000000       8.818460000000
318    2        3.029007000000      12.197083000000       8.286968000000
319    3        6.700254000000       8.946944000000       2.044680000000
320    3        5.594118000000       8.099441000000       2.644722000000
321    2        6.012614000000       8.210769000000       1.773526000000
322    3        6.270533000000       9.367850000000       7.130768000000
323    3        4.813046000000       9.232587000000       7.598554000000
324    2        5.384946000000       8.953108000000       6.860944000000
325    3       11.336316000000       9.274406000000       1.782134000000
326    3       11.063727000000      10.199087000000       2.964650000000
327    2       10.745770000000       9.325430000000       2.592864000000
328    3       13.463174000000       4.978419000000      27.383579000000
329    3       14.793821000000       4.426715000000      26.758734000000
330    2       14.445704000000       5.187970000000      27.340466000000
331    3       20.102634000000      11.347182000000       3.307847000000
332    3       18.992699000000      10.252781000000       3.073887000000
333    2       19.439999000000      11.011448000000       2.621475000000
334    3       20.069942000000      10.553404000000       0.738390000000
335    3        1.016017000000      11.489839000000       0.838051000000
336    2        0.681976000000      10.706037000000       0.301923000000
337    3       11.186493000000       3.008171000000      27.024342000000
338    3       12.028559000000       3.131858000000      28.214861000000
339    2       11.962353000000       3.541932000000      27.331476000000
340    3       19.130857000000      12.950453000000      30.401159000000
341    3       17.966661000000      13.586709000000      31.004602000000
342    2       18.422289000000      12.683716000000      31.049383000000
343    3        2.201567000000       6.504209000000      33.285286000000
344    3        1.497562000000       7.182913000000      31.988426000000
345    2        2.279840000000       7.288447000000      32.633495000000
346    3        6.828821000000       3.538246000000       6.333041000000
347    3        5.756001000000       4.114058000000       5.383880000000
348    2        6.569385000000       4.443651000000       5.949257000000
349    3       16.920452000000      12.996824000000       8.438921000000
350    3       15.503277000000      12.346374000000       7.855413000000
351    2       16.071455000000      12.557369000000       8.726525000000
352    3        2.830204000000       9.134250000000       9.456469000000
353    3        3.033279000000      10.487398000000       8.567997000000
354    2        2.997229000000       9.500361000000       8.525186000000
355    3        1.354539000000      10.344923000000       5.655326000000
356    3        2.050178000000      11.340165000000       4.640991000000
357    2        1.172385000000      11.012112000000       4.910728000000
358    3        4.939889000000       2.228263000000      27.712242000000
359    3        5.289377000000       3.331523000000      26.697105000000
360    2        4.923658000000       3.202059000000      27.636251000000
361    3       19.769100000000       5.253504000000      28.271986000000
362    3        0.090287000000       6.413298000000      29.184320000000
363    2        0.006991000000       6.097283000000      28.283175000000
364    3       19.852844000000       5.121910000000       7.442576000000
365    3       19.725756000000       3.586698000000       7.407756000000
366    2        0.008966000000       4.339563000000       7.826649000000
367    3       14.913142000000       5.218832000000      29.166859000000
368    3       16.009933000000       5.077002000000      30.234179000000
369    2       15.104362000000       5.522754000000      30.074739000000
370    3       14.689970000000      11.245079000000       6.055861000000
371    3       14.082302000000      12.649590000000       6.606531000000
372    2       14.914798000000      12.201401000000       6.395495000000
373    3        4.932844000000       0.267745000000      33.596127000000
374    3        4.613254000000      13.044830000000      33.982311000000
375    2        4.923138000000      13.641629000000      33.244984000000
376    3       13.990644000000      13.873065000000      29.899441000000
377    3       13.288915000000       0.983139000000      29.745579000000
378    2       14.153276000000       0.535850000000      29.701635000000
379    3       16.941801000000       5.180296000000       6.805830000000
380    3       15.630952000000       4.236970000000       6.764001000000
381    2       15.937510000000       5.157785000000       6.790927000000
382    3       18.205843000000      12.119895000000      33.909946000000
383    3       18.322805000000      11.672699000000      32.519405000000
384    2       18.119312000000      11.268959000000      33.397251000000
385    3       16.470171000000       4.040312000000      34.655190000000
386    3       16.105623000000       5.681304000000      34.492790000000
387    2       16.190910000000       4.800362000000      34.031517000000
388    3       16.389038000000      12.361835000000       1.518547000000
389    3       14.969105000000      12.649479000000       2.292896000000
390    2       15.417055000000      12.090656000000       1.559096000000
391    3        5.639447000000      11.702276000000      32.185257000000
392    3        5.341498000000      10.102197000000      32.197506000000
393    2        5.344299000000      10.949872000000      31.622002000000
394    3       10.494184000000      13.208845000000       8.663096000000
395    3       11.214562000000      13.258931000000      10.044741000000
396    2       11.316275000000      12.904805000000       9.122790000000
397    3        2.379029000000       5.134566000000       6.638987000000
398    3        1.544379000000       4.414019000000       7.625296000000
399    2        2.417799000000       4.931763000000       7.598116000000
400    3       17.132034000000       9.182111000000       3.607568000000
401    3       18.059641000000       9.104629000000       4.911251000000
402    2       18.044144000000       8.846926000000       3.900236000000
403    3       14.452559000000      12.417672000000      34.380558000000
404    3       14.351159000000      12.353088000000       0.240281000000
405    2       13.850447000000      12.724341000000      35.154106000000
406    3       19.637510000000       6.488951000000      35.674274000000
407    3        0.569844000000       7.569158000000       0.350823000000