# File generated with Atomsk by j281j388 on 2026-06-02 11:08:30

864  atoms
3  atom types

0.000000000000      20.251000000000  xlo xhi
0.000000000000      14.320000000000  ylo yhi
0.000000000000      35.707675000000  zlo zhi

Masses

1   28.08500000             # Si
2   15.99900000             # O
3   1.00800000              # H

Atoms # atomic

1    1        2.325688000000       1.781545000000      12.707088000000
2    2        2.360004000000       2.900523000000      11.466278000000
3    3        1.495100000000       3.299098000000      11.142599000000
4    1       10.263131000000       7.792561000000      12.921648000000
5    2       10.031002000000       6.496492000000      11.867489000000
6    3       10.875922000000       6.229398000000      11.448995000000
7    1        0.083289000000       7.417172000000      12.254938000000
8    2        0.209231000000       6.519311000000      10.874873000000
9    3        1.029320000000       6.865616000000      10.381433000000
10    1        5.207402000000       7.775352000000      12.558618000000
11    2        4.777968000000       7.026330000000      11.181153000000
12    3        5.295908000000       6.714502000000      10.397829000000
13    1        7.599280000000       2.054234000000      12.696961000000
14    2        7.504895000000       2.848992000000      11.196145000000
15    3        6.549663000000       2.933827000000      10.910937000000
16    1       19.924978000000      14.262089000000      12.773800000000
17    2       19.979311000000      13.547950000000      11.250834000000
18    3       20.075550000000      12.578108000000      11.119498000000
19    1       20.231686000000       7.619164000000      22.440163000000
20    2       19.683636000000       6.549463000000      23.577744000000
21    3       18.727537000000       6.560080000000      23.835407000000
22    1        5.113372000000       7.565467000000      22.689003000000
23    2        4.701648000000       6.723922000000      24.092997000000
24    3        4.437147000000       7.331620000000      24.926750000000
25    1        3.096436000000       1.972394000000      22.893242000000
26    2        2.811975000000       2.883659000000      24.301483000000
27    3        2.712271000000       2.448606000000      25.259748000000
28    1        7.932937000000       1.748177000000      22.842327000000
29    2        7.648060000000       2.706955000000      24.164524000000
30    3        6.765028000000       3.017404000000      24.563004000000
31    1        2.600650000000       9.376528000000      12.654795000000
32    2        2.651496000000      10.026766000000      11.066562000000
33    3        3.319797000000      10.644658000000      10.708213000000
34    1        7.679067000000       9.819309000000      12.994514000000
35    2        7.911801000000      11.256516000000      12.123281000000
36    3        7.046189000000      11.664015000000      11.870325000000
37    1        5.018305000000       0.216078000000      12.959387000000
38    2        5.607691000000      13.246330000000      12.052627000000
39    3        5.393113000000      13.513602000000      11.093487000000
40    1        5.593053000000      14.302543000000      23.245239000000
41    2        5.620790000000      13.735291000000      24.818043000000
42    3        6.474520000000      13.872577000000      25.393316000000
43    1        2.497724000000       9.378323000000      22.640646000000
44    2        2.490790000000      10.400332000000      23.919127000000
45    3        3.433607000000      10.778161000000      24.204889000000
46    1        0.439986000000       0.211603000000      22.699476000000
47    2        0.009759000000      14.168352000000      24.305679000000
48    3        0.240746000000      13.232050000000      24.680939000000
49    1        7.878996000000       9.075727000000      23.084785000000
50    2        7.499317000000       9.539500000000      24.644304000000
51    3        8.076989000000      10.340002000000      24.909767000000
52    1       10.454762000000      14.192669000000      23.128513000000
53    2       10.224404000000      13.554960000000      24.681427000000
54    3       10.868069000000      13.963419000000      25.412775000000
55    1       12.706391000000       2.154671000000      12.625350000000
56    2       12.677623000000       2.855989000000      11.109089000000
57    3       13.224879000000       2.341907000000      10.376627000000
58    1       15.017146000000       7.891962000000      12.777279000000
59    2       14.647308000000       6.964440000000      11.530965000000
60    3       13.788688000000       6.544329000000      11.413077000000
61    1       17.698511000000       2.066398000000      12.312319000000
62    2       18.311440000000       2.502787000000      10.869493000000
63    3       19.041519000000       3.273496000000      10.634877000000
64    1       10.404058000000       6.765113000000      23.039606000000
65    2       10.507303000000       6.084239000000      24.544004000000
66    3       11.171909000000       6.422192000000      25.223522000000
67    1       12.818706000000       1.629091000000      22.490004000000
68    2       12.533070000000       2.691290000000      23.720608000000
69    3       11.672233000000       3.148211000000      23.739288000000
70    1       18.201769000000       2.170820000000      22.337500000000
71    2       18.288176000000       3.471933000000      23.298149000000
72    3       18.817976000000       4.302117000000      23.150990000000
73    1       15.546629000000       7.888735000000      22.909275000000
74    2       16.708307000000       7.292994000000      23.935793000000
75    3       16.494913000000       7.592397000000      24.969904000000
76    1       12.611552000000       9.738546000000      12.854738000000
77    2       12.242593000000      10.865687000000      11.762009000000
78    3       11.443682000000      10.558183000000      11.218437000000
79    1       17.743118000000       9.338416000000      12.629771000000
80    2       17.431963000000      10.805833000000      11.943615000000
81    3       16.998917000000      11.547511000000      12.398108000000
82    1       15.266204000000       0.316172000000      12.647538000000
83    2       15.593149000000      13.341070000000      11.549542000000
84    3       15.556558000000      13.585749000000      10.565561000000
85    1       10.125527000000       0.280458000000      13.064992000000
86    2       10.398507000000      13.293807000000      12.008583000000
87    3       11.277750000000      12.848782000000      11.981259000000
88    1       15.676800000000       0.385258000000      22.740246000000
89    2       15.210518000000      14.022713000000      24.238363000000
90    3       14.862817000000      13.143326000000      24.273083000000
91    1       12.568713000000       8.890862000000      23.165981000000
92    2       11.864925000000       9.357468000000      24.689018000000
93    3       11.012336000000       9.977187000000      24.848764000000
94    1       17.942720000000       9.865949000000      22.586027000000
95    2       18.151943000000      10.295342000000      24.263075000000
96    3       17.976387000000       9.373133000000      24.610863000000
97    1       20.243439000000       5.841034000000      15.068361000000
98    1        2.769298000000       2.220698000000      17.559650000000
99    1        5.049234000000       5.710639000000      14.915637000000
100    1        2.644525000000       3.953940000000      14.973806000000
101    1        7.517819000000       3.710186000000      15.333094000000
102    1        0.160067000000       0.678584000000      17.528435000000
103    1        2.641696000000       3.717265000000      20.254488000000
104    1        0.229275000000       5.548278000000      20.125933000000
105    1        5.106998000000       5.640574000000      20.129772000000
106    1        7.465160000000       3.446041000000      20.170605000000
107    1        7.569940000000       1.527634000000      17.990873000000
108    1        5.125508000000      12.745889000000      15.543704000000
109    1        7.821352000000      11.288762000000      15.605752000000
110    1        0.107443000000      12.591660000000      15.454453000000
111    1        2.687031000000      11.010554000000      15.193988000000
112    1        7.477903000000       9.308079000000      17.918079000000
113    1        5.055666000000       0.079957000000      18.103092000000
114    1        0.177878000000       7.404995000000      17.722733000000
115    1        2.444000000000      11.186907000000      20.185877000000
116    1        0.135367000000      13.138813000000      19.929995000000
117    1        4.976318000000      12.761495000000      20.764147000000
118    1        7.584700000000      10.832977000000      20.525099000000
119    1        2.451094000000       9.429623000000      18.030102000000
120    1        5.027145000000       7.532993000000      17.649126000000
121    1        9.945420000000       5.861372000000      15.305302000000
122    1       15.320255000000       7.108179000000      18.002073000000
123    1       15.354164000000       5.993274000000      15.208311000000
124    1       17.689571000000       4.108039000000      14.735340000000
125    1       12.663350000000       4.286635000000      14.799962000000
126    1       12.753358000000       3.667519000000      20.153343000000
127    1       14.990752000000       5.617405000000      20.634384000000
128    1       17.632643000000       3.988069000000      20.075867000000
129    1       17.716652000000       2.389681000000      17.382639000000
130    1       10.011092000000       5.169237000000      20.337782000000
131    1       13.240595000000       2.552655000000      17.266485000000
132    1       15.375002000000       0.347161000000      17.562395000000
133    1       10.393292000000      12.989937000000      15.790252000000
134    1       12.859481000000      11.159266000000      15.478122000000
135    1       17.852278000000       8.970270000000      18.154322000000
136    1       17.975958000000      10.602368000000      15.477775000000
137    1       15.551896000000      12.683978000000      15.207215000000
138    1        9.925553000000       7.168503000000      18.081114000000
139    1       13.092447000000       9.019676000000      17.907425000000
140    1       12.813910000000      10.818267000000      20.501993000000
141    1       10.310288000000      12.559853000000      20.472666000000
142    1       15.134030000000      12.926424000000      20.197828000000
143    1       17.789951000000      11.529590000000      19.978197000000
144    1       10.577532000000       0.425445000000      18.227560000000
145    2        7.468699000000       2.491892000000      16.538416000000
146    2        8.126822000000       3.000563000000      13.908442000000
147    2        6.061542000000       1.456446000000      13.136019000000
148    2        1.588334000000       1.228959000000      16.927925000000
149    2        8.553285000000       4.980052000000      15.318041000000
150    2        0.500804000000       7.002469000000      16.120840000000
151    2        5.972190000000       4.323546000000      15.065784000000
152    2        0.824223000000       1.101389000000      12.912330000000
153    2        3.549827000000       0.709339000000      12.294018000000
154    2        2.847004000000       2.558211000000      14.073965000000
155    2        3.596986000000       5.116230000000      14.347855000000
156    2        2.990719000000       3.584538000000      16.610691000000
157    2        1.082487000000       4.541256000000      14.979426000000
158    2        4.804869000000       6.578578000000      16.307716000000
159    2        5.688046000000       6.641979000000      13.653608000000
160    2        8.730117000000       0.878966000000      12.504189000000
161    2        4.191355000000       1.411229000000      17.722582000000
162    2       20.084110000000       6.410613000000      13.533045000000
163    2        2.174483000000       2.848415000000      18.998810000000
164    2        1.358905000000       4.576550000000      20.763577000000
165    2        3.761532000000       4.768845000000      19.609798000000
166    2        3.349169000000       2.871075000000      21.516459000000
167    2        0.262785000000       6.953979000000      20.959105000000
168    2        4.649056000000       1.346000000000      22.981081000000
169    2        1.978154000000       0.790561000000      22.480881000000
170    2        4.677909000000       6.418367000000      21.497410000000
171    2        5.692798000000       6.658090000000      18.859077000000
172    2        6.794270000000       2.414274000000      19.158728000000
173    2        8.927887000000       4.136832000000      19.671295000000
174    2        6.232882000000       4.481929000000      20.601181000000
175    2        8.038111000000       2.699068000000      21.524429000000
176    2        7.044428000000       0.377973000000      22.705910000000
177    2        0.482648000000       5.973396000000      18.493288000000
178    2        9.569302000000       1.295953000000      22.991117000000
179    2        9.100114000000       1.225502000000      18.546005000000
180    2        9.677911000000       6.671180000000      19.657845000000
181    2        6.690353000000       0.199550000000      17.612329000000
182    2        7.398131000000       9.946517000000      14.706794000000
183    2       19.971830000000      13.708012000000      16.632120000000
184    2        4.675602000000      13.132506000000      17.119076000000
185    2       20.051712000000      13.137919000000      13.952492000000
186    2        4.065604000000       8.801359000000      13.316035000000
187    2        1.565183000000       8.088774000000      12.522568000000
188    2        1.772941000000      12.375455000000      15.474410000000
189    2        2.042675000000      10.523101000000      13.746793000000
190    2        4.263349000000      11.417054000000      15.013173000000
191    2        2.386633000000      10.016984000000      16.403061000000
192    2        8.685555000000       8.148057000000      17.544035000000
193    2        7.764596000000      10.819324000000      17.181080000000
194    2        6.789508000000      12.544671000000      15.378772000000
195    2        4.804575000000      14.059118000000      14.499393000000
196    2        9.413442000000      11.712903000000      15.277653000000
197    2        6.509237000000       8.877267000000      12.316491000000
198    2        9.121802000000       9.005269000000      12.734892000000
199    2        0.970022000000       8.762927000000      18.441303000000
200    2        3.287551000000      10.533979000000      18.966578000000
201    2        1.110169000000      11.888165000000      19.491796000000
202    2        3.394336000000      12.273847000000      20.923481000000
203    2        1.951861000000       9.927468000000      21.159376000000
204    2        0.330787000000       0.224517000000      19.169212000000
205    2        5.099303000000      13.015775000000      22.387447000000
206    2        5.081222000000      14.119880000000      19.776163000000
207    2        7.383731000000       9.489120000000      19.529234000000
208    2        8.817142000000      11.869500000000      20.021233000000
209    2        6.085052000000      11.560805000000      20.378891000000
210    2        7.935428000000      10.356686000000      22.050255000000
211    2        6.704803000000       7.947473000000      22.554195000000
212    2        4.102110000000       8.865856000000      22.358923000000
213    2        3.486611000000       8.090998000000      18.005152000000
214    2        1.429063000000       8.199995000000      22.993515000000
215    2        6.054744000000       8.751743000000      17.397442000000
216    2        9.203692000000       7.939922000000      23.002684000000
217    2        0.238958000000      13.323723000000      21.568512000000
218    2       11.882421000000       1.310427000000      17.776472000000
219    2       18.395996000000       0.690667000000      12.906525000000
220    2       18.844751000000       5.004216000000      15.444999000000
221    2       19.269279000000       1.868894000000      17.382437000000
222    2       18.065332000000       3.307970000000      13.399083000000
223    2       17.262644000000       2.892378000000      15.836511000000
224    2       11.174267000000       1.602228000000      12.988710000000
225    2       13.630724000000       0.760358000000      12.558787000000
226    2       10.244619000000       5.988665000000      16.962376000000
227    2       13.161798000000       3.495423000000      13.516994000000
228    2       12.428854000000       3.207653000000      16.068714000000
229    2       13.871003000000       5.214756000000      15.328363000000
230    2       11.167764000000       4.935193000000      14.574804000000
231    2       16.106091000000       1.663120000000      12.150396000000
232    2       15.026256000000       7.307813000000      14.311663000000
233    2       15.964946000000       6.103753000000      16.789070000000
234    2       16.369497000000       5.014055000000      14.309340000000
235    2        9.838350000000       7.255590000000      14.454244000000
236    2       13.546380000000       3.327293000000      18.696594000000
237    2       11.512230000000       4.678409000000      19.763248000000
238    2       13.903121000000       4.492069000000      21.135422000000
239    2       12.289308000000       2.341960000000      21.009773000000
240    2       14.435343000000       1.478509000000      22.401770000000
241    2       12.068056000000       0.244918000000      22.797493000000
242    2       15.024981000000       6.841957000000      21.761654000000
243    2       14.581551000000       6.238280000000      19.139595000000
244    2       17.418322000000       3.666807000000      18.479643000000
245    2       19.084253000000       4.688259000000      20.339739000000
246    2       16.511669000000       5.082787000000      20.503143000000
247    2       17.555143000000       2.501061000000      20.826838000000
248    2       19.665716000000       1.480785000000      22.222614000000
249    2       16.956087000000       0.861381000000      17.725830000000
250    2       10.134490000000       5.470757000000      21.953848000000
251    2       17.012724000000       1.250415000000      23.119720000000
252    2       14.448517000000       1.590016000000      16.825100000000
253    2       16.564163000000       8.012257000000      18.700361000000
254    2       16.544334000000       8.286462000000      12.304523000000
255    2        9.871903000000      13.509760000000      17.276285000000
256    2       19.241720000000       8.616270000000      12.124466000000
257    2       18.859882000000       7.857365000000      17.592957000000
258    2       14.218477000000       9.359695000000      12.891272000000
259    2       11.806493000000       8.332365000000      12.479184000000
260    2       12.987481000000      10.310324000000      16.870008000000
261    2       12.199022000000      10.222392000000      14.280217000000
262    2       14.309046000000      11.740734000000      14.763902000000
263    2       11.963879000000      12.497124000000      15.847937000000
264    2       15.632824000000      14.038240000000      14.147514000000
265    2       10.174259000000      14.178144000000      14.673704000000
266    2       17.328119000000       9.887915000000      16.801420000000
267    2       15.384639000000      13.254352000000      16.745045000000
268    2       17.035719000000      11.899299000000      14.969289000000
269    2       17.939526000000       9.466970000000      14.319659000000
270    2       19.465456000000      11.239669000000      15.713275000000
271    2       11.492522000000       8.196575000000      17.778715000000
272    2       13.401868000000       9.644403000000      19.395243000000
273    2       11.238770000000      11.292082000000      20.044130000000
274    2       13.828404000000      12.102255000000      20.639755000000
275    2       12.754447000000      10.101984000000      21.999990000000
276    2       14.141312000000       8.402665000000      23.553135000000
277    2       10.159084000000      12.872494000000      22.068750000000
278    2       11.862766000000       7.599048000000      22.489286000000
279    2       10.939847000000      13.965220000000      19.657459000000
280    2       14.763717000000      14.142660000000      19.096785000000
281    2       15.912949000000      13.553847000000      21.489437000000
282    2       18.223412000000      10.077812000000      19.337029000000
283    2       18.775854000000      12.758347000000      19.566954000000
284    2       16.189148000000      11.797636000000      19.586830000000
285    2       18.049227000000      11.289790000000      21.686565000000
286    2       19.186314000000       8.912601000000      22.303589000000
287    2       16.401606000000       9.277193000000      22.314184000000
288    2       14.334569000000       8.177791000000      17.304447000000
289    3       15.372769000000      12.022967000000      26.490105000000
290    3       14.316275000000      10.913329000000      26.145519000000
291    2       14.430809000000      11.944777000000      26.192854000000
292    3       19.805460000000      13.414840000000      27.827171000000
293    3        0.618631000000      12.640231000000      28.715919000000
294    2       20.216843000000      13.468382000000      28.726587000000
295    3       16.074924000000       7.045711000000      30.090334000000
296    3       16.963825000000       8.282200000000      29.454929000000
297    2       16.509636000000       7.973133000000      30.299774000000
298    3       12.429332000000      11.998120000000       3.011398000000
299    3       11.863609000000      12.005211000000       4.488627000000
300    2       11.653582000000      11.703263000000       3.544820000000
301    3        0.903869000000       2.915685000000      32.327667000000
302    3       19.978004000000       3.651238000000      33.136616000000
303    2        0.502940000000       3.015440000000      33.214432000000
304    3        5.210201000000      11.308325000000      28.567362000000
305    3        5.680329000000      11.061490000000      30.151188000000
306    2        5.922966000000      10.881272000000      29.159201000000
307    3       19.469280000000      13.725473000000      34.357872000000
308    3       18.004459000000      14.113036000000      34.165760000000
309    2       18.570812000000      13.337006000000      34.401314000000
310    3        1.207982000000       0.373171000000      33.668159000000
311    3        0.347346000000       1.387049000000      34.402401000000
312    2        0.735414000000       0.450588000000      34.533382000000
313    3       11.355792000000       7.034158000000      33.735214000000
314    3       10.050175000000       7.865973000000      34.173241000000
315    2       10.757718000000       7.316170000000      34.554321000000
316    3        2.631519000000      12.653153000000       8.046078000000
317    3        4.080335000000      12.580860000000       8.769945000000
318    2        3.451244000000      12.084813000000       8.155101000000
319    3        6.817233000000       7.998193000000       1.551206000000
320    3        5.582342000000       7.919592000000       2.457668000000
321    2        5.899968000000       7.643022000000       1.553683000000
322    3        6.701445000000       9.166366000000       6.202613000000
323    3        5.128386000000       8.884320000000       6.657886000000
324    2        5.934874000000       8.453356000000       6.276966000000
325    3       12.111301000000       8.677404000000       1.919175000000
326    3       11.379084000000       9.593396000000       3.033051000000
327    2       11.416869000000       8.634274000000       2.667966000000
328    3       13.799506000000       5.849582000000      26.842245000000
329    3       14.811380000000       4.911830000000      26.520832000000
330    2       14.801378000000       5.860314000000      26.931620000000
331    3       20.172756000000      11.835114000000       3.443821000000
332    3       19.148733000000      10.649448000000       3.277951000000
333    2       19.338110000000      11.581055000000       2.972365000000
334    3        0.353148000000      11.362411000000       1.130842000000
335    3        1.712637000000      11.996119000000       0.798282000000
336    2        1.186253000000      11.121861000000       0.698616000000
337    3       10.590743000000       3.714947000000      26.628168000000
338    3       11.358650000000       3.129149000000      27.875977000000
339    2       11.438573000000       3.785390000000      27.147610000000
340    3       18.784224000000      12.796170000000      29.828552000000
341    3       17.536844000000      13.583325000000      30.284630000000
342    2       17.897167000000      12.610583000000      30.258375000000
343    3        2.698889000000       5.894710000000      32.781853000000
344    3        1.790477000000       6.623256000000      31.635635000000
345    2        2.550514000000       6.807544000000      32.337051000000
346    3        7.031909000000       3.317828000000       6.098850000000
347    3        5.867301000000       3.628737000000       4.980574000000
348    2        6.751355000000       3.975300000000       5.343737000000
349    3       16.376421000000       0.065188000000       8.396925000000
350    3       15.621736000000      13.142202000000       7.807922000000
351    2       15.698346000000      13.681429000000       8.628186000000
352    3        2.919972000000       8.647862000000       8.082783000000
353    3        3.280296000000      10.277122000000       7.963811000000
354    2        3.213704000000       9.386808000000       7.442272000000
355    3        1.737899000000      11.077101000000       4.925359000000
356    3        2.473547000000      12.411290000000       4.602932000000
357    2        1.580235000000      12.070887000000       4.763344000000
358    3        5.113194000000       1.961385000000      27.920973000000
359    3        5.235058000000       3.351099000000      27.007799000000
360    2        5.149354000000       2.980366000000      27.915031000000
361    3       19.918600000000       4.641780000000      27.574034000000
362    3        0.245657000000       5.334706000000      28.710388000000
363    2        0.080780000000       5.515803000000      27.780758000000
364    3       19.520353000000       5.127207000000       7.407822000000
365    3       19.960537000000       3.753574000000       7.324194000000
366    2       20.166599000000       4.511475000000       7.865933000000
367    3       15.295018000000       5.023706000000      28.941418000000
368    3       15.920524000000       4.351235000000      30.212971000000
369    2       15.267604000000       5.056377000000      29.923628000000
370    3       14.690809000000      11.399989000000       5.770103000000
371    3       13.917422000000      12.631555000000       6.159310000000
372    2       14.877007000000      12.336235000000       5.901721000000
373    3        4.425092000000      14.316195000000      34.215977000000
374    3        4.677039000000      12.784739000000      34.089302000000
375    2        4.047639000000      13.497306000000      33.806068000000
376    3       13.791889000000      13.764036000000      30.092039000000
377    3       12.928386000000       0.777474000000      29.987127000000
378    2       13.760282000000       0.351942000000      29.695477000000
379    3       17.379223000000       6.126336000000       6.443801000000
380    3       16.442915000000       5.070577000000       7.049438000000
381    2       16.461323000000       5.896069000000       6.556776000000
382    3       18.100527000000      12.146529000000      33.545109000000
383    3       18.083960000000      11.708005000000      31.958910000000
384    2       17.945414000000      11.373611000000      32.905487000000
385    3       16.689806000000       4.382141000000      34.871105000000
386    3       16.418306000000       6.056520000000      34.603504000000
387    2       16.269505000000       5.059437000000      34.242363000000
388    3       16.036058000000      11.449752000000       1.138897000000
389    3       14.873856000000      11.537073000000       2.272278000000
390    2       15.204474000000      10.973151000000       1.463577000000
391    3        5.577378000000      11.103416000000      33.098911000000
392    3        5.238057000000       9.830759000000      32.437012000000
393    2        5.065069000000      10.791088000000      32.287823000000
394    3       11.100378000000      13.471546000000       9.125766000000
395    3       12.324853000000      12.592139000000       9.329179000000
396    2       11.641523000000      12.813215000000       8.703371000000
397    3        2.446524000000       5.399848000000       6.603542000000
398    3        1.543093000000       4.696321000000       7.723248000000
399    2        2.459575000000       5.084898000000       7.546229000000
400    3       17.467674000000       9.121396000000       3.631546000000
401    3       18.391148000000       9.356076000000       4.997287000000
402    2       18.416027000000       9.151097000000       4.014646000000
403    3       14.335443000000      11.970222000000      34.293690000000
404    3       13.832248000000      11.753993000000       0.064879000000
405    2       13.610203000000      12.214998000000      34.944798000000
406    3        0.378615000000       5.910867000000      35.641605000000
407    3        1.385737000000       7.254711000000       0.085553000000