# File generated with Atomsk by j281j388 on 2026-06-04 11:47:48

864  atoms
3  atom types

0.000000000000      20.251000000000  xlo xhi
0.000000000000      14.320000000000  ylo yhi
0.000000000000      35.707675000000  zlo zhi

Masses

1   28.08500000             # Si
2   15.99900000             # O
3   1.00800000              # H

Atoms # atomic

1    1        2.653459000000       2.369129000000      13.127920000000
2    2        2.683041000000       2.839109000000      11.480388000000
3    3        1.784961000000       3.155162000000      11.094913000000
4    1       10.308742000000       7.030979000000      12.834036000000
5    2        9.979606000000       6.141678000000      11.459617000000
6    3       10.866853000000       5.821956000000      10.996366000000
7    1        0.776901000000       7.114086000000      12.479149000000
8    2        0.818693000000       6.262246000000      11.042068000000
9    3        1.075521000000       6.617690000000      10.111292000000
10    1        5.257243000000       7.742706000000      13.349562000000
11    2        4.509887000000       6.672606000000      12.436902000000
12    3        5.117970000000       6.351770000000      11.668269000000
13    1        7.499655000000       2.191447000000      12.021272000000
14    2        7.177698000000       3.283354000000      10.853065000000
15    3        6.177779000000       3.293860000000      10.376189000000
16    1        0.063856000000       0.715263000000      13.106505000000
17    2        0.192781000000       0.060953000000      11.488659000000
18    3        0.910057000000       0.622818000000      11.143727000000
19    1       20.132696000000       7.661555000000      22.775085000000
20    2       19.542252000000       6.655366000000      23.999458000000
21    3       19.037643000000       5.818441000000      23.694263000000
22    1        5.702848000000       7.379623000000      23.280298000000
23    2        5.909493000000       6.658966000000      24.819433000000
24    3        5.353663000000       7.186073000000      25.574347000000
25    1        2.867106000000       1.808610000000      23.055792000000
26    2        2.850425000000       2.372992000000      24.595114000000
27    3        3.112989000000       1.907014000000      25.437197000000
28    1        8.274676000000       2.709165000000      22.252785000000
29    2        7.879639000000       3.944380000000      23.299038000000
30    3        6.911175000000       4.014832000000      23.601353000000
31    1        2.869159000000       9.344477000000      13.046941000000
32    2        2.725571000000      10.299363000000      11.689064000000
33    3        2.537854000000      11.274253000000      11.860662000000
34    1        7.904551000000       9.077163000000      12.877709000000
35    2        7.900879000000      10.259147000000      11.619641000000
36    3        7.364930000000      10.958810000000      11.996939000000
37    1        5.019601000000       0.294006000000      12.937389000000
38    2        4.796503000000      13.348033000000      11.870527000000
39    3        4.615143000000      13.647751000000      10.964015000000
40    1        5.846779000000       0.571231000000      22.651060000000
41    2        5.884716000000      14.219885000000      24.226454000000
42    3        6.666343000000      14.165439000000      24.919025000000
43    1        2.740045000000       8.969772000000      23.208845000000
44    2        2.820181000000      10.168976000000      24.295824000000
45    3        3.676778000000      10.554474000000      24.599731000000
46    1        0.131615000000       0.134974000000      22.748339000000
47    2       19.896849000000      13.989127000000      24.305853000000
48    3       20.091124000000      13.032481000000      24.534573000000
49    1        8.513379000000       8.863286000000      22.736786000000
50    2        9.077326000000       8.966834000000      24.303635000000
51    3        9.646880000000       9.767759000000      24.481564000000
52    1       10.414847000000       0.522402000000      22.521402000000
53    2       10.635285000000      13.774417000000      23.732897000000
54    3       11.032743000000      14.175061000000      24.595343000000
55    1       12.849963000000       1.897714000000      11.548446000000
56    2       12.452486000000       2.417694000000      10.002332000000
57    3       12.628206000000       1.670376000000       9.312671000000
58    1       15.781121000000       7.329044000000      12.652128000000
59    2       15.418289000000       6.197807000000      11.539172000000
60    3       14.483587000000       5.891474000000      11.640647000000
61    1       17.828737000000       2.377236000000      12.804455000000
62    2       18.194746000000       3.048469000000      11.326094000000
63    3       19.168787000000       3.233083000000      11.198530000000
64    1       10.854313000000       6.910980000000      22.126877000000
65    2       10.877412000000       5.729799000000      23.260105000000
66    3       11.105417000000       5.960976000000      24.244505000000
67    1       12.980203000000       2.232118000000      21.513044000000
68    2       13.079213000000       3.695873000000      22.219158000000
69    3       12.255404000000       4.272910000000      22.422077000000
70    1       17.820396000000       1.901957000000      22.328802000000
71    2       17.501318000000       2.534879000000      23.828133000000
72    3       16.956692000000       3.328850000000      23.733446000000
73    1       15.266219000000       7.368001000000      22.547424000000
74    2       15.019115000000       6.356320000000      23.851143000000
75    3       14.967132000000       6.927538000000      24.695646000000
76    1       12.867648000000       8.577971000000      12.546854000000
77    2       12.688964000000       8.607627000000      10.910606000000
78    3       11.878810000000       8.979402000000      10.503442000000
79    1       18.410816000000       9.073800000000      12.704177000000
80    2       18.442944000000      10.327952000000      11.560163000000
81    3       18.259611000000      11.193733000000      11.966788000000
82    1       15.572017000000       0.406853000000      12.329952000000
83    2       16.535782000000      14.076145000000      11.215408000000
84    3       16.098768000000      13.730436000000      10.434132000000
85    1       10.092560000000       0.545951000000      12.172084000000
86    2       10.280075000000      13.462798000000      11.299626000000
87    3       10.737638000000      12.819628000000      11.890436000000
88    1       15.156313000000       0.098050000000      22.237476000000
89    2       15.167543000000      13.521485000000      23.701624000000
90    3       14.457813000000      12.854907000000      23.563574000000
91    1       12.912774000000       9.441687000000      22.256269000000
92    2       12.821846000000      10.850391000000      23.091259000000
93    3       12.089206000000      10.919147000000      23.740629000000
94    1       17.610209000000       9.323260000000      22.743435000000
95    2       16.944717000000       9.728277000000      24.213100000000
96    3       16.600435000000      10.605308000000      24.355217000000
97    1        0.346430000000       5.860401000000      15.313493000000
98    1        2.654174000000       2.163514000000      18.186905000000
99    1        5.562307000000       5.753430000000      15.524699000000
100    1        2.894699000000       4.093305000000      15.726668000000
101    1        7.716529000000       3.519675000000      14.851524000000
102    1        0.147322000000       0.450795000000      18.006390000000
103    1        2.851950000000       4.048727000000      20.821114000000
104    1        0.420139000000       5.909142000000      20.094627000000
105    1        5.706047000000       5.568002000000      20.583183000000
106    1        8.347345000000       3.949682000000      19.442095000000
107    1        7.176601000000       1.577740000000      17.176916000000
108    1        5.061078000000      12.711260000000      15.327311000000
109    1        7.796849000000      10.980748000000      15.342895000000
110    1        0.011611000000      12.941903000000      15.366536000000
111    1        2.599710000000      11.102486000000      15.472301000000
112    1        8.665937000000       9.099847000000      17.712420000000
113    1        4.833783000000      14.097270000000      18.175543000000
114    1        0.590710000000       7.892074000000      17.653086000000
115    1        3.114515000000      10.797909000000      20.680489000000
116    1        0.364715000000      12.507309000000      20.304880000000
117    1        5.560039000000      12.417020000000      20.660231000000
118    1        8.256127000000      10.819589000000      20.307367000000
119    1        3.719661000000       9.425564000000      17.862827000000
120    1        5.978157000000       7.306378000000      17.944843000000
121    1       10.364899000000       5.137059000000      15.040538000000
122    1       15.159975000000       7.961478000000      17.359436000000
123    1       15.410095000000       5.775850000000      15.118598000000
124    1       18.004847000000       4.135169000000      15.334449000000
125    1       13.125254000000       3.830721000000      13.831162000000
126    1       13.484443000000       3.581632000000      18.812389000000
127    1       15.371525000000       5.960565000000      19.864618000000
128    1       17.922773000000       4.162286000000      20.003225000000
129    1       17.949675000000       2.155981000000      17.709936000000
130    1       11.042906000000       5.754002000000      19.102104000000
131    1       13.549563000000       1.845464000000      16.082703000000
132    1       15.652896000000      14.126378000000      17.036289000000
133    1       10.064156000000      13.128355000000      14.564910000000
134    1       12.349367000000      11.259793000000      14.276983000000
135    1       17.859098000000       9.315288000000      17.630877000000
136    1       17.929785000000      10.885466000000      15.070070000000
137    1       15.355280000000      12.355270000000      14.584648000000
138    1       11.545010000000       7.467518000000      16.685003000000
139    1       11.607902000000       9.778446000000      16.816273000000
140    1       12.448627000000      11.068750000000      19.627302000000
141    1       10.238811000000      13.266570000000      19.845665000000
142    1       15.056591000000      12.626107000000      19.666332000000
143    1       17.784973000000      11.032396000000      20.106705000000
144    1       10.424929000000       0.476242000000      16.979710000000
145    2        6.716916000000       2.450283000000      15.788853000000
146    2        8.209193000000       2.913761000000      13.381495000000
147    2        6.070241000000       1.382911000000      12.374295000000
148    2        1.250820000000       1.604637000000      17.567818000000
149    2        9.125290000000       4.226598000000      15.610798000000
150    2        0.860771000000       7.158489000000      16.145397000000
151    2        6.602181000000       4.786863000000      14.646327000000
152    2        0.998574000000       2.093857000000      13.378543000000
153    2        3.502586000000       0.930498000000      13.218632000000
154    2        3.191349000000       3.508806000000      14.170402000000
155    2        3.979656000000       5.368421000000      15.825248000000
156    2        3.300703000000       3.095920000000      16.993031000000
157    2        1.288046000000       4.503369000000      15.731277000000
158    2        6.204287000000       5.969753000000      17.050751000000
159    2        5.345222000000       7.259787000000      14.932581000000
160    2        8.758887000000       1.265307000000      11.487633000000
161    2        3.648330000000       0.865113000000      18.627163000000
162    2        0.435067000000       6.018269000000      13.654141000000
163    2        2.422699000000       3.114025000000      19.518078000000
164    2        1.748266000000       5.309891000000      20.902700000000
165    2        4.359020000000       4.602969000000      20.395983000000
166    2        2.616719000000       3.318542000000      22.241022000000
167    2       20.007271000000       7.105017000000      21.186140000000
168    2        4.386888000000       1.281929000000      22.424875000000
169    2        1.654705000000       0.792432000000      22.592861000000
170    2        5.694568000000       6.177435000000      22.125721000000
171    2        5.786455000000       6.978330000000      19.591196000000
172    2        7.480405000000       2.866370000000      18.504557000000
173    2        9.379550000000       5.189595000000      18.895561000000
174    2        7.045513000000       4.669957000000      20.252541000000
175    2        9.014677000000       3.061769000000      20.741835000000
176    2        6.936453000000       1.712542000000      22.113895000000
177    2        0.807267000000       6.541073000000      18.666651000000
178    2        9.365030000000       1.698276000000      23.038637000000
179    2        8.768376000000       1.032186000000      16.821383000000
180    2       11.790463000000       7.143626000000      18.327585000000
181    2        6.266821000000       0.476290000000      17.835920000000
182    2        7.504513000000       9.669792000000      14.407544000000
183    2       19.928225000000      13.953441000000      16.679556000000
184    2        4.453328000000      13.384119000000      16.755831000000
185    2        0.550265000000      13.773859000000      14.038336000000
186    2        4.413363000000       9.169888000000      13.507413000000
187    2        2.170144000000       7.848991000000      12.839567000000
188    2        1.283139000000      12.022237000000      15.940167000000
189    2        2.134490000000       9.979289000000      14.382237000000
190    2        3.778745000000      11.991395000000      14.598117000000
191    2        3.689156000000      10.558866000000      16.687038000000
192    2        9.953136000000       8.316897000000      16.957699000000
193    2        8.544086000000      10.533007000000      16.729040000000
194    2        6.411466000000      11.820601000000      15.667348000000
195    2        5.548049000000      13.947153000000      14.343407000000
196    2        8.886972000000      11.934470000000      14.332566000000
197    2        6.728319000000       7.950981000000      12.525515000000
198    2        9.448808000000       8.543139000000      12.735444000000
199    2        1.964783000000       8.897782000000      17.856207000000
200    2        3.897675000000       9.971759000000      19.460505000000
201    2        1.785496000000      11.673390000000      20.270781000000
202    2        4.277844000000      11.727603000000      21.448021000000
203    2        2.594799000000       9.611163000000      21.692429000000
204    2        0.650503000000      13.803011000000      19.276321000000
205    2        6.222746000000      13.592066000000      21.620466000000
206    2        4.913830000000      12.867043000000      19.192205000000
207    2        8.741757000000       9.504576000000      19.290890000000
208    2        9.075475000000      12.120868000000      19.571413000000
209    2        6.605118000000      11.173338000000      20.457762000000
210    2        8.626131000000      10.277575000000      21.866869000000
211    2        6.870730000000       8.482668000000      22.876516000000
212    2        4.085250000000       7.971832000000      23.249094000000
213    2        4.579627000000       8.134008000000      17.435162000000
214    2        1.389088000000       7.968607000000      23.379730000000
215    2        7.319225000000       8.209029000000      17.545092000000
216    2        9.423571000000       7.695372000000      21.824936000000
217    2        0.047646000000      12.998660000000      21.871294000000
218    2       11.772059000000       1.389063000000      16.373857000000
219    2       18.771299000000       1.132524000000      13.360696000000
220    2       19.068073000000       5.377527000000      15.760909000000
221    2       19.143717000000       1.422145000000      18.531374000000
222    2       18.001396000000       3.757011000000      13.776312000000
223    2       18.419313000000       2.832631000000      16.267082000000
224    2       11.444279000000       1.497236000000      12.319478000000
225    2       14.070999000000       0.770086000000      11.819068000000
226    2       11.370184000000       5.920637000000      16.105944000000
227    2       13.269797000000       3.344822000000      12.279750000000
228    2       13.629219000000       2.463882000000      14.599924000000
229    2       14.177546000000       5.128716000000      14.139959000000
230    2       11.534750000000       4.277415000000      14.105091000000
231    2       16.269373000000       1.721218000000      12.980821000000
232    2       16.387596000000       6.561719000000      13.994584000000
233    2       14.607009000000       6.759095000000      16.291658000000
234    2       16.468035000000       4.662083000000      15.813472000000
235    2        9.645021000000       6.304909000000      14.166561000000
236    2       13.849214000000       2.978936000000      17.283552000000
237    2       12.151057000000       4.593770000000      18.646177000000
238    2       14.881997000000       4.418933000000      19.210718000000
239    2       13.070001000000       2.311511000000      19.822651000000
240    2       14.187664000000       1.387624000000      22.229460000000
241    2       11.687941000000       1.378502000000      22.058121000000
242    2       14.823672000000       6.359550000000      21.307259000000
243    2       15.127461000000       7.266217000000      18.938885000000
244    2       17.416744000000       3.334965000000      18.699423000000
245    2       19.415802000000       4.786196000000      19.744192000000
246    2       17.030895000000       5.548483000000      20.029398000000
247    2       17.543932000000       3.232258000000      21.369789000000
248    2       19.333477000000       1.254770000000      22.205956000000
249    2       16.948925000000       0.901701000000      17.074739000000
250    2       11.189494000000       6.161413000000      20.701551000000
251    2       16.740223000000       0.642386000000      21.933369000000
252    2       14.385370000000       0.476611000000      16.235847000000
253    2       16.761011000000       8.258588000000      16.898394000000
254    2       17.054985000000       8.225086000000      12.112773000000
255    2       10.391817000000      13.319852000000      16.091433000000
256    2       19.742653000000       8.181583000000      12.418649000000
257    2       19.321119000000       8.525382000000      17.565805000000
258    2       14.421932000000       8.142129000000      13.052676000000
259    2       11.904734000000       7.416753000000      13.283643000000
260    2       11.604691000000      11.088002000000      15.795755000000
261    2       12.490556000000      10.048856000000      13.139042000000
262    2       13.880811000000      11.626751000000      14.602787000000
263    2       11.384751000000      12.550987000000      13.589211000000
264    2       15.336172000000      13.552259000000      13.474265000000
265    2        9.557577000000       0.152018000000      13.692749000000
266    2       18.009069000000      10.677650000000      16.719896000000
267    2       15.904613000000      12.724730000000      16.180151000000
268    2       16.575686000000      11.306111000000      14.157146000000
269    2       18.317051000000       9.454356000000      14.307191000000
270    2       19.049706000000      12.045158000000      14.765757000000
271    2       12.183019000000       8.607912000000      15.774920000000
272    2       11.624783000000      10.317562000000      18.379841000000
273    2       11.594901000000      12.412737000000      20.072296000000
274    2       13.986522000000      11.479041000000      19.235073000000
275    2       12.567566000000       9.856357000000      20.681376000000
276    2       14.459662000000       8.806240000000      22.542372000000
277    2        9.797755000000      14.035290000000      21.158306000000
278    2       11.880561000000       8.146028000000      22.574194000000
279    2       10.611782000000      14.303274000000      18.592665000000
280    2       15.040239000000      13.871860000000      18.565264000000
281    2       14.663552000000      13.288604000000      21.170292000000
282    2       17.553442000000       9.616329000000      19.239168000000
283    2       19.305746000000      11.593724000000      19.763622000000
284    2       16.628798000000      12.094504000000      19.659430000000
285    2       17.428408000000      10.681761000000      21.719946000000
286    2       19.255735000000       9.103255000000      22.706627000000
287    2       16.831610000000       7.876743000000      22.343918000000
288    2       14.199863000000       9.156187000000      17.630909000000
289    3       15.520084000000      11.409947000000      28.262373000000
290    3       14.328262000000      10.735416000000      27.622150000000
291    2       14.694315000000      11.676189000000      27.777843000000
292    3       19.651510000000      13.604441000000      28.447592000000
293    3        0.706028000000      12.956992000000      29.130703000000
294    2       20.240047000000      13.627431000000      29.230341000000
295    3       15.473474000000       6.543283000000      30.473589000000
296    3       16.253582000000       7.688117000000      29.812107000000
297    2       15.870388000000       7.490546000000      30.661798000000
298    3       12.631709000000      12.470469000000       4.063118000000
299    3       11.542428000000      12.507581000000       5.118968000000
300    2       11.719557000000      12.097482000000       4.210856000000
301    3        1.022966000000       2.946861000000      32.883755000000
302    3       19.880648000000       3.456540000000      33.339329000000
303    2        0.377215000000       2.949941000000      33.708046000000
304    3        4.952356000000      11.063646000000      29.088287000000
305    3        5.444160000000      10.810250000000      30.578745000000
306    2        5.723403000000      10.641931000000      29.646393000000
307    3       19.085108000000      14.237552000000      34.847572000000
308    3       17.509563000000       0.035862000000      34.716408000000
309    2       18.208506000000      13.709574000000      34.877247000000
310    3        1.091230000000       0.110527000000      33.939842000000
311    3        0.470391000000       1.385477000000      34.596222000000
312    2        0.508112000000       0.410473000000      34.728786000000
313    3       11.091597000000       7.243399000000      34.993694000000
314    3        9.906683000000       8.068832000000      35.143429000000
315    2       10.409143000000       7.360322000000      35.690845000000
316    3        1.622732000000      12.490942000000       7.550450000000
317    3        2.821178000000      12.853503000000       8.500521000000
318    2        2.548996000000      12.280260000000       7.758565000000
319    3        7.001299000000       8.580384000000       2.472842000000
320    3        5.546953000000       8.361087000000       3.074764000000
321    2        6.075332000000       8.255554000000       2.205852000000
322    3        5.881516000000       9.168695000000       7.045812000000
323    3        4.374478000000       8.909554000000       7.429739000000
324    2        5.116584000000       8.587090000000       6.864436000000
325    3       11.236928000000       9.189067000000       2.783768000000
326    3       11.050059000000      10.405350000000       3.751181000000
327    2       10.623465000000       9.527398000000       3.511887000000
328    3       13.555855000000       5.214763000000      27.288340000000
329    3       14.810516000000       4.340703000000      27.121511000000
330    2       14.529863000000       5.184134000000      27.533724000000
331    3       19.886389000000      10.896111000000       3.391000000000
332    3       18.676762000000      10.104377000000       3.050394000000
333    2       19.221203000000      10.824805000000       2.623054000000
334    3       20.076530000000      10.525696000000       0.896858000000
335    3        0.972019000000      11.580861000000       0.846530000000
336    2        0.598768000000      10.804567000000       0.337808000000
337    3       11.378093000000       2.817456000000      27.923426000000
338    3       12.204967000000       2.779498000000      29.239964000000
339    2       12.228557000000       3.097889000000      28.282007000000
340    3       18.996820000000      12.899103000000      30.607525000000
341    3       17.643318000000      13.475182000000      31.141176000000
342    2       18.226852000000      12.632711000000      31.182501000000
343    3        1.092568000000       6.348844000000      33.199505000000
344    3        0.960159000000       7.220947000000      31.865999000000
345    2        1.619041000000       7.014804000000      32.653770000000
346    3        6.233337000000       3.213424000000       6.193663000000
347    3        5.112647000000       3.915153000000       5.426280000000
348    2        5.960485000000       4.159614000000       5.945082000000
349    3       16.126928000000      14.127519000000       8.629853000000
350    3       15.281863000000      12.881764000000       7.991999000000
351    2       15.685670000000      13.255476000000       8.926157000000
352    3        2.412914000000       9.438575000000       8.744322000000
353    3        3.045314000000      10.662373000000       7.919057000000
354    2        2.917118000000       9.676382000000       7.926191000000
355    3        0.753071000000      10.221316000000       4.903755000000
356    3        1.674215000000      11.342470000000       4.333436000000
357    2        0.749371000000      11.108760000000       4.488053000000
358    3        5.042098000000       2.624334000000      28.065622000000
359    3        5.309208000000       3.700763000000      26.950577000000
360    2        5.428145000000       3.506160000000      27.976858000000
361    3       19.720198000000       5.261420000000      28.214455000000
362    3       20.065521000000       6.460484000000      29.086889000000
363    2       20.076647000000       6.180916000000      28.118011000000
364    3       19.012228000000       4.882180000000       7.695590000000
365    3       19.358564000000       3.253928000000       7.524152000000
366    2       19.638851000000       4.110750000000       8.004267000000
367    3       14.756159000000       4.807094000000      29.409807000000
368    3       15.897171000000       4.215233000000      30.435394000000
369    2       15.031435000000       4.768193000000      30.365559000000
370    3       14.470954000000      11.374979000000       6.856731000000
371    3       13.571893000000      12.541339000000       6.831765000000
372    2       14.574533000000      12.332570000000       6.779430000000
373    3        5.052813000000       0.292329000000      34.027016000000
374    3        4.907990000000      13.166824000000      34.470356000000
375    2        4.669870000000      13.751875000000      33.737682000000
376    3       13.666808000000      13.975121000000      30.716928000000
377    3       12.824129000000       0.901465000000      30.512865000000
378    2       13.714881000000       0.510692000000      30.267359000000
379    3       16.704111000000       5.029269000000       6.655345000000
380    3       15.824492000000       4.676531000000       5.430529000000
381    2       15.782505000000       4.731948000000       6.444919000000
382    3       17.769842000000      12.280623000000      34.197903000000
383    3       17.844717000000      11.885287000000      32.772160000000
384    2       17.491432000000      11.489994000000      33.637089000000
385    3       15.986125000000       4.454565000000      35.181728000000
386    3       15.809783000000       6.073221000000      34.976292000000
387    2       15.692761000000       5.171827000000      34.530098000000
388    3       15.843138000000      12.079943000000       1.837218000000
389    3       14.738561000000      12.525269000000       2.807088000000
390    2       14.918682000000      11.908389000000       2.094686000000
391    3        5.228714000000      11.008293000000      33.010319000000
392    3        4.898048000000       9.543857000000      32.501968000000
393    2        4.723843000000      10.508905000000      32.341808000000
394    3        9.832294000000      12.715289000000       8.370112000000
395    3       10.435341000000      12.735939000000       9.871003000000
396    2       10.512493000000      12.230546000000       8.989779000000
397    3        1.835488000000       4.998062000000       6.132783000000
398    3        0.932838000000       4.745278000000       7.373237000000
399    2        1.752222000000       5.238020000000       7.071691000000
400    3       16.716984000000       9.433331000000       4.034735000000
401    3       17.754406000000       9.196971000000       5.193867000000
402    2       17.612692000000       9.043426000000       4.230194000000
403    3       14.103348000000      12.399293000000      35.001984000000
404    3       13.657103000000      12.490586000000       0.757255000000
405    2       13.430661000000      12.914422000000      35.551220000000
406    3       19.428272000000       5.988240000000       0.729744000000
407    3        0.285809000000       7.131660000000       0.328190000000