# File generated with Atomsk by j281j388 on 2026-06-02 11:08:58

864  atoms
3  atom types

0.000000000000      20.251000000000  xlo xhi
0.000000000000      14.320000000000  ylo yhi
0.000000000000      35.707675000000  zlo zhi

Masses

1   28.08500000             # Si
2   15.99900000             # O
3   1.00800000              # H

Atoms # atomic

1    1        2.909189000000       1.420050000000      13.283487000000
2    2        3.077403000000       2.003311000000      11.699452000000
3    3        2.249251000000       2.570035000000      11.500166000000
4    1       10.331647000000       7.743082000000      14.237839000000
5    2       10.434237000000       6.385257000000      13.265561000000
6    3       11.185293000000       6.412212000000      12.538850000000
7    1       20.145687000000       7.803324000000      12.266468000000
8    2       19.636478000000       7.489232000000      10.733955000000
9    3        0.158227000000       7.284686000000      10.152493000000
10    1        5.440546000000       7.744442000000      12.689075000000
11    2        5.709183000000       6.627093000000      11.525251000000
12    3        6.668268000000       6.346606000000      11.527131000000
13    1        8.023893000000       2.221710000000      12.732938000000
14    2        7.393791000000       3.083697000000      11.443363000000
15    3        6.397486000000       3.194250000000      11.090763000000
16    1        0.376915000000      14.195930000000      12.289793000000
17    2        1.043678000000      13.981041000000      10.795460000000
18    3        0.514793000000      14.042973000000      10.021877000000
19    1       20.003744000000       7.876355000000      22.133266000000
20    2       19.643774000000       6.704653000000      23.252491000000
21    3       18.688831000000       6.425164000000      23.276411000000
22    1        5.197196000000       7.491439000000      22.562559000000
23    2        5.088061000000       6.802810000000      24.113338000000
24    3        4.606643000000       7.164193000000      24.963589000000
25    1        2.700737000000       1.760433000000      22.634829000000
26    2        3.055521000000       2.365263000000      24.068426000000
27    3        2.981259000000       1.956055000000      24.981707000000
28    1        7.597969000000       1.284521000000      22.230349000000
29    2        7.753261000000       1.964814000000      23.847141000000
30    3        7.109841000000       2.695301000000      23.910374000000
31    1        2.681978000000       9.447440000000      11.851265000000
32    2        2.600018000000       9.932102000000      10.209701000000
33    3        3.140171000000      10.751329000000      10.232044000000
34    1        7.786481000000       9.741581000000      13.464658000000
35    2        8.458520000000      10.956738000000      12.405547000000
36    3        7.929578000000      11.766042000000      12.195076000000
37    1        5.775107000000      14.304373000000      13.343472000000
38    2        6.056896000000      13.253597000000      12.031950000000
39    3        5.448094000000      13.220376000000      11.193404000000
40    1        4.882228000000      14.013032000000      22.380581000000
41    2        4.788434000000      13.574347000000      24.002102000000
42    3        5.760124000000      13.435021000000      24.355612000000
43    1        2.523138000000       8.932303000000      21.692904000000
44    2        2.096554000000      10.422160000000      22.398746000000
45    3        2.753771000000      10.831553000000      23.061974000000
46    1        0.144157000000      14.050193000000      22.257446000000
47    2       19.844982000000      13.153524000000      23.516685000000
48    3        0.117820000000      12.352186000000      23.890907000000
49    1        7.655708000000       9.530411000000      22.970631000000
50    2        7.076350000000      10.122423000000      24.432632000000
51    3        6.998035000000       9.391209000000      25.090994000000
52    1       10.411051000000       0.213036000000      22.563574000000
53    2        9.874760000000      13.742167000000      23.979736000000
54    3       10.258118000000      14.201491000000      24.805876000000
55    1       12.993709000000       2.545039000000      12.753335000000
56    2       12.717327000000       3.179713000000      11.251621000000
57    3       12.982626000000       2.635035000000      10.449924000000
58    1       15.660187000000       7.344420000000      12.502107000000
59    2       15.568315000000       6.205939000000      11.232511000000
60    3       14.563795000000       6.098656000000      11.184264000000
61    1       17.988541000000       1.828146000000      12.068913000000
62    2       18.467381000000       2.799790000000      10.785110000000
63    3       19.422171000000       3.175285000000      10.825380000000
64    1       10.064823000000       7.571903000000      23.348125000000
65    2       10.043257000000       7.751012000000      25.011822000000
66    3       10.869710000000       7.529860000000      25.549164000000
67    1       12.981636000000       2.117156000000      23.126333000000
68    2       12.850618000000       3.154390000000      24.499769000000
69    3       11.967266000000       3.133121000000      24.962675000000
70    1       18.210960000000       1.827089000000      22.309280000000
71    2       19.153324000000       2.560607000000      23.540354000000
72    3       20.105812000000       2.562518000000      23.374943000000
73    1       15.860938000000       7.788072000000      23.027925000000
74    2       16.581343000000       6.951796000000      24.242867000000
75    3       16.416197000000       7.264227000000      25.233847000000
76    1       12.865050000000       8.890555000000      12.942461000000
77    2       12.039521000000       8.662678000000      11.488928000000
78    3       11.451122000000       9.341815000000      11.163507000000
79    1       17.590712000000       9.643312000000      12.834175000000
80    2       17.754704000000      11.018455000000      11.920637000000
81    3       18.716259000000      11.304536000000      11.886608000000
82    1       15.431003000000       0.256188000000      12.466102000000
83    2       14.849281000000      13.098964000000      11.961113000000
84    3       15.085026000000      12.975323000000      10.982455000000
85    1       10.601390000000       0.603396000000      12.777879000000
86    2       11.448241000000      13.930944000000      11.699412000000
87    3       12.291455000000      13.547209000000      12.023501000000
88    1       15.643596000000       0.326912000000      23.105610000000
89    2       15.718583000000      13.331658000000      24.084913000000
90    3       14.925430000000      12.989077000000      24.611843000000
91    1       12.909070000000       8.956976000000      22.676231000000
92    2       12.673280000000      10.036588000000      23.855192000000
93    3       11.778354000000      10.260138000000      24.259230000000
94    1       17.948576000000      10.250528000000      22.826935000000
95    2       18.044706000000      10.896353000000      24.319593000000
96    3       17.483011000000      10.483406000000      25.078737000000
97    1       20.082821000000       5.589473000000      14.533528000000
98    1        2.279730000000       2.423120000000      17.626566000000
99    1        5.468416000000       5.553847000000      15.033520000000
100    1        2.698720000000       4.113290000000      15.144847000000
101    1        8.060431000000       3.748353000000      15.243039000000
102    1        0.128890000000       0.299000000000      17.218056000000
103    1        2.140833000000       3.957590000000      20.274748000000
104    1       20.072405000000       6.142569000000      19.725456000000
105    1        4.945642000000       5.554820000000      20.021868000000
106    1        7.391207000000       3.401623000000      20.015017000000
107    1        7.393126000000       1.411049000000      17.226273000000
108    1        5.194979000000      12.529192000000      15.620328000000
109    1        7.810597000000      11.297417000000      16.273031000000
110    1        0.032263000000      12.466209000000      14.725613000000
111    1        2.817180000000      11.034257000000      14.209867000000
112    1        7.688377000000       8.969785000000      18.231697000000
113    1        4.554872000000       0.116200000000      17.566437000000
114    1       20.235695000000       7.532219000000      16.951757000000
115    1        2.893861000000      10.201129000000      18.873133000000
116    1        0.730106000000      12.574778000000      19.420210000000
117    1        5.007864000000      12.322512000000      19.879026000000
118    1        7.822775000000      11.261977000000      20.455044000000
119    1        2.819473000000       8.396366000000      15.734649000000
120    1        5.276985000000       7.241045000000      17.378191000000
121    1       10.265076000000       5.754842000000      16.560486000000
122    1       15.835834000000       7.439641000000      17.835978000000
123    1       15.749910000000       5.858980000000      15.090994000000
124    1       17.661449000000       3.336916000000      14.845987000000
125    1       13.039809000000       4.733825000000      15.303596000000
126    1       12.811028000000       4.192021000000      21.142225000000
127    1       15.329081000000       6.041021000000      20.528267000000
128    1       17.700100000000       4.115918000000      19.910046000000
129    1       17.777159000000       1.873553000000      17.685064000000
130    1        9.878717000000       5.086797000000      21.528671000000
131    1       12.440465000000       3.679742000000      17.992828000000
132    1       14.699517000000       1.073612000000      17.994520000000
133    1       10.445377000000      13.071792000000      15.461233000000
134    1       13.103610000000      11.438895000000      14.764712000000
135    1       18.053591000000       9.428165000000      18.079351000000
136    1       17.378189000000      11.167432000000      15.467615000000
137    1       15.147446000000      13.601449000000      15.249946000000
138    1       11.783195000000       6.472602000000      19.751827000000
139    1       14.881756000000      10.331219000000      17.232512000000
140    1       13.171947000000      11.059072000000      20.160061000000
141    1       10.705901000000      12.966786000000      20.134264000000
142    1       15.324986000000      13.280187000000      20.295834000000
143    1       17.994432000000      11.693607000000      20.049442000000
144    1       10.510127000000       0.901225000000      17.685001000000
145    2        7.348129000000       2.379769000000      15.923648000000
146    2        8.780277000000       3.095764000000      13.877918000000
147    2        6.630286000000       1.437230000000      13.371088000000
148    2        1.054988000000       1.610609000000      16.823986000000
149    2        9.038357000000       4.650268000000      16.206879000000
150    2       19.536457000000       6.746502000000      15.629795000000
151    2        6.713240000000       4.505489000000      14.616131000000
152    2        1.439655000000       0.667543000000      13.317439000000
153    2        4.100562000000       0.252589000000      13.605952000000
154    2        2.915750000000       2.698756000000      14.327106000000
155    2        3.904982000000       5.159868000000      14.721676000000
156    2        2.666775000000       3.814042000000      16.778597000000
157    2        1.397496000000       5.015922000000      14.580163000000
158    2        5.830627000000       5.779173000000      16.684805000000
159    2        5.460689000000       6.954226000000      14.168755000000
160    2        9.168132000000       1.141144000000      12.104228000000
161    2        3.625717000000       1.434657000000      17.815569000000
162    2       20.118431000000       6.367023000000      13.042678000000
163    2        1.712276000000       2.871590000000      19.114698000000
164    2        0.945209000000       5.052496000000      20.296202000000
165    2        3.535136000000       4.718402000000      19.996893000000
166    2        2.379318000000       3.101312000000      21.648848000000
167    2       19.864532000000       7.555734000000      20.526688000000
168    2        3.950801000000       0.924274000000      21.849537000000
169    2        1.311553000000       0.812039000000      22.739618000000
170    2        5.260732000000       6.210491000000      21.569019000000
171    2        4.605733000000       6.800428000000      18.883881000000
172    2        7.307594000000       2.401046000000      18.667503000000
173    2        8.716870000000       4.174261000000      20.843384000000
174    2        6.115892000000       4.430393000000      19.741217000000
175    2        6.859287000000       2.441393000000      21.254354000000
176    2        6.520109000000      14.304708000000      22.090712000000
177    2       20.209730000000       6.471735000000      18.163181000000
178    2        9.079691000000       0.775585000000      21.689779000000
179    2        8.886906000000       0.827327000000      17.511997000000
180    2       10.327027000000       6.409937000000      20.577688000000
181    2        6.134253000000       0.415358000000      17.087542000000
182    2        7.333546000000      10.586208000000      14.825615000000
183    2       20.194429000000      13.650334000000      15.910685000000
184    2        4.034982000000      13.510302000000      16.261602000000
185    2       20.104397000000      12.811349000000      13.102378000000
186    2        3.903244000000       8.436472000000      12.426109000000
187    2        1.298466000000       8.629438000000      12.313057000000
188    2        1.522085000000      11.828967000000      14.861409000000
189    2        2.763829000000      10.952830000000      12.541620000000
190    2        4.357717000000      11.369775000000      14.702567000000
191    2        2.444813000000       9.456702000000      14.633012000000
192    2        8.362399000000       7.496841000000      18.509747000000
193    2        8.374871000000      10.297836000000      17.459507000000
194    2        6.328982000000      12.006104000000      16.749289000000
195    2        6.236364000000      13.376632000000      14.639967000000
196    2        9.045800000000      12.453080000000      16.067612000000
197    2        6.522210000000       8.966199000000      12.742591000000
198    2        9.049073000000       8.676418000000      13.677652000000
199    2        1.556327000000       7.629701000000      16.288271000000
200    2        2.962849000000       9.673967000000      17.308043000000
201    2        1.633793000000      11.289999000000      19.000456000000
202    2        4.295089000000      10.949942000000      19.298388000000
203    2        2.644947000000       8.983106000000      20.026773000000
204    2        1.051348000000      13.815955000000      18.364634000000
205    2        4.471056000000      12.719197000000      21.379391000000
206    2        4.547713000000      13.632481000000      18.994970000000
207    2        7.689054000000       9.787292000000      19.744621000000
208    2        9.104416000000      12.358590000000      20.147038000000
209    2        6.601827000000      12.209972000000      19.828024000000
210    2        7.811854000000      10.995275000000      22.127447000000
211    2        6.572675000000       8.398332000000      22.396339000000
212    2        3.886328000000       8.404375000000      22.383596000000
213    2        4.193299000000       7.627771000000      16.126060000000
214    2        1.409484000000       7.867538000000      22.325405000000
215    2        6.161692000000       8.677128000000      17.405201000000
216    2        9.152115000000       8.868530000000      22.934958000000
217    2        0.842299000000      13.103477000000      20.989594000000
218    2       11.126601000000       2.529638000000      17.638905000000
219    2       19.308943000000       0.905877000000      12.352483000000
220    2       19.056177000000       4.308890000000      14.680509000000
221    2       18.916096000000       0.613081000000      17.917797000000
222    2       17.297953000000       2.420520000000      13.484309000000
223    2       18.010780000000       2.294236000000      16.093246000000
224    2       11.599109000000       1.735635000000      13.341238000000
225    2       14.092035000000       1.270706000000      12.557873000000
226    2       10.612612000000       5.423791000000      18.113050000000
227    2       13.354014000000       3.610937000000      14.037683000000
228    2       13.426785000000       4.457506000000      16.965010000000
229    2       14.148713000000       5.886971000000      14.826447000000
230    2       11.469491000000       5.248561000000      15.474372000000
231    2       16.679577000000       0.961456000000      11.568149000000
232    2       16.490322000000       6.824218000000      13.943995000000
233    2       15.999306000000       6.213317000000      16.735641000000
234    2       16.373890000000       4.355055000000      14.975266000000
235    2        9.976376000000       7.143125000000      15.792415000000
236    2       12.739233000000       4.208329000000      19.502420000000
237    2       11.214161000000       4.039840000000      21.639509000000
238    2       13.879184000000       5.507628000000      21.307135000000
239    2       13.612943000000       3.001963000000      21.896349000000
240    2       14.196532000000       1.063507000000      23.520069000000
241    2       11.497108000000       1.485928000000      22.784065000000
242    2       16.151373000000       6.905723000000      21.657766000000
243    2       15.125954000000       7.034982000000      19.231272000000
244    2       18.093405000000       3.317861000000      18.500126000000
245    2       18.593433000000       5.476763000000      20.028114000000
246    2       16.109098000000       4.647042000000      20.059526000000
247    2       17.973137000000       3.031684000000      21.248823000000
248    2       18.992060000000       0.498706000000      21.583599000000
249    2       16.232363000000       1.692007000000      18.181385000000
250    2        9.491463000000       5.872091000000      22.998108000000
251    2       16.931263000000       1.350261000000      23.342773000000
252    2       13.544702000000       2.257062000000      18.108912000000
253    2       17.359797000000       7.927223000000      18.244070000000
254    2       16.478125000000       8.756693000000      11.974373000000
255    2       11.099398000000      14.284406000000      16.436691000000
256    2       19.068897000000       8.917754000000      13.035690000000
257    2       19.496372000000       8.999239000000      17.279814000000
258    2       14.111051000000       7.797162000000      13.025123000000
259    2       11.785895000000       8.625593000000      14.236804000000
260    2       13.958571000000      10.551822000000      15.921120000000
261    2       13.312505000000      10.489532000000      13.398843000000
262    2       13.820865000000      12.882483000000      14.507885000000
263    2       11.624168000000      11.874405000000      15.313530000000
264    2       15.958293000000       0.036305000000      14.040977000000
265    2       10.117151000000      13.873432000000      14.031118000000
266    2       17.436983000000      10.520578000000      17.010511000000
267    2       14.637567000000       0.298894000000      16.491228000000
268    2       16.217100000000      12.326767000000      15.644222000000
269    2       16.930084000000      10.036944000000      14.331663000000
270    2       18.855518000000      11.631773000000      15.033328000000
271    2       12.721520000000       7.949768000000      20.022387000000
272    2       13.919021000000      10.564175000000      18.608315000000
273    2       11.703557000000      11.721196000000      19.651791000000
274    2       14.295572000000      12.131296000000      20.848904000000
275    2       13.046974000000       9.753913000000      21.201868000000
276    2       14.237709000000       8.056102000000      23.129070000000
277    2       11.259712000000      13.470690000000      21.596209000000
278    2       11.569163000000       7.939321000000      22.607281000000
279    2       10.842440000000      14.277941000000      19.055853000000
280    2       14.425000000000      14.150842000000      19.184326000000
281    2       15.694672000000      14.302000000000      21.512959000000
282    2       17.716322000000      10.114489000000      19.566311000000
283    2       19.334049000000      12.140980000000      19.229074000000
284    2       16.747696000000      12.666339000000      19.594069000000
285    2       17.964350000000      11.570401000000      21.757378000000
286    2       19.313053000000       9.445181000000      22.395473000000
287    2       16.676733000000       9.184289000000      22.677019000000
288    2       14.997088000000       8.681195000000      17.121433000000
289    3       14.189768000000      11.314136000000      26.267538000000
290    3       13.418751000000      11.122507000000      24.953201000000
291    2       13.838014000000      11.863343000000      25.557503000000
292    3       19.439661000000      13.577962000000      28.000418000000
293    3        0.117746000000      12.961666000000      29.156477000000
294    2       19.682564000000      13.683530000000      28.981750000000
295    3       16.477617000000       7.119620000000      29.790415000000
296    3       17.339930000000       8.376880000000      29.211510000000
297    2       16.773064000000       8.039148000000      29.953899000000
298    3       12.494970000000      12.185235000000       4.237717000000
299    3       11.268766000000      11.836545000000       4.912714000000
300    2       11.688556000000      11.590182000000       4.058287000000
301    3        1.664821000000       2.807773000000      32.716763000000
302    3        0.201693000000       3.444164000000      33.200039000000
303    2        0.998393000000       2.950997000000      33.468910000000
304    3        4.950139000000      10.684446000000      28.540730000000
305    3        5.113407000000      10.457616000000      30.084978000000
306    2        5.542441000000      10.204990000000      29.175116000000
307    3       19.168760000000      13.608179000000      34.297394000000
308    3       17.582703000000      13.802536000000      34.235477000000
309    2       18.346888000000      13.066921000000      34.516266000000
310    3        0.918146000000      14.215349000000      33.440151000000
311    3        0.264708000000       1.363213000000      33.700329000000
312    2        0.316519000000       0.403635000000      34.053684000000
313    3       11.038844000000       7.021253000000      33.990334000000
314    3        9.782810000000       7.896024000000      34.285213000000
315    2       10.372439000000       7.177768000000      34.665958000000
316    3        1.925632000000      12.225468000000       7.071243000000
317    3        2.903146000000      12.146303000000       8.360829000000
318    2        2.830900000000      11.820148000000       7.426468000000
319    3        7.425868000000       8.499825000000       1.912921000000
320    3        6.090003000000       8.099907000000       2.597517000000
321    2        6.568759000000       8.001407000000       1.743439000000
322    3        6.054012000000       9.047200000000       6.652419000000
323    3        4.408428000000       8.738383000000       6.922302000000
324    2        5.280417000000       8.410844000000       6.548742000000
325    3       11.453789000000       8.848907000000       2.062281000000
326    3       11.209789000000       9.917002000000       3.307996000000
327    2       10.854134000000       9.110554000000       2.863516000000
328    3       13.698019000000       5.324983000000      27.874399000000
329    3       14.890276000000       4.330167000000      27.454344000000
330    2       14.687404000000       5.189019000000      27.958509000000
331    3        0.109339000000      11.007382000000       2.946913000000
332    3       18.976578000000      10.316756000000       2.938356000000
333    2       19.470116000000      11.025496000000       2.468616000000
334    3       20.125912000000      10.696602000000       0.818505000000
335    3        0.835255000000      11.880977000000       0.463113000000
336    2        0.746936000000      10.883616000000       0.305635000000
337    3       10.791080000000       3.864743000000      26.774075000000
338    3       11.641602000000       3.413942000000      28.060555000000
339    2       11.659700000000       4.008991000000      27.294916000000
340    3       18.183254000000      13.307669000000      29.877151000000
341    3       16.868162000000      13.838172000000      30.592951000000
342    2       17.273832000000      13.015981000000      30.203987000000
343    3        2.224222000000       6.470770000000      34.028358000000
344    3        1.758952000000       7.293164000000      32.660999000000
345    2        2.120139000000       7.350100000000      33.589191000000
346    3        6.890875000000       3.658053000000       5.606194000000
347    3        5.780004000000       4.601468000000       4.913969000000
348    2        6.688945000000       4.655511000000       5.335289000000
349    3       15.504304000000      14.148265000000       8.897470000000
350    3       14.723782000000      12.817638000000       8.559542000000
351    2       14.915508000000      13.440747000000       9.307280000000
352    3        2.692079000000       8.862783000000       8.457799000000
353    3        2.757687000000      10.061832000000       7.448298000000
354    2        2.812112000000       9.078009000000       7.514925000000
355    3        1.362059000000      10.216710000000       4.861835000000
356    3        2.313761000000      11.181501000000       3.974223000000
357    2        1.372294000000      11.001876000000       4.294144000000
358    3        5.181684000000       2.247390000000      27.413151000000
359    3        5.560811000000       3.415758000000      26.379429000000
360    2        5.625906000000       3.123701000000      27.316307000000
361    3       19.638992000000       4.913073000000      28.233850000000
362    3       19.920460000000       6.187491000000      28.950724000000
363    2       19.898441000000       5.869977000000      28.049431000000
364    3       19.775829000000       5.196011000000       7.958392000000
365    3       20.041319000000       3.678661000000       7.826513000000
366    2        0.093467000000       4.474449000000       8.362324000000
367    3       15.494715000000       5.274138000000      29.238892000000
368    3       16.596737000000       4.794743000000      30.334635000000
369    2       15.917040000000       5.535992000000      30.128426000000
370    3       14.556422000000      10.664634000000       7.044794000000
371    3       13.665459000000      11.932284000000       6.787116000000
372    2       14.546221000000      11.663809000000       7.130994000000
373    3        4.958961000000       0.089400000000      34.454388000000
374    3        4.935886000000      12.828794000000      34.336010000000
375    2        4.379274000000      13.584688000000      34.579525000000
376    3       13.579315000000      13.951213000000      30.040236000000
377    3       13.083432000000       1.228220000000      29.974483000000
378    2       13.894731000000       0.572989000000      29.866045000000
379    3       17.329514000000       5.087101000000       6.487961000000
380    3       16.681639000000       3.867413000000       7.283527000000
381    2       16.467672000000       4.512159000000       6.581426000000
382    3       17.820786000000      12.246061000000      33.053848000000
383    3       17.495527000000      12.003244000000      31.521492000000
384    2       17.404940000000      11.523472000000      32.440578000000
385    3       16.604465000000       4.398492000000      35.211826000000
386    3       16.490248000000       5.824632000000      34.837238000000
387    2       16.564901000000       4.949152000000      34.385681000000
388    3       16.038033000000      11.980559000000       1.980450000000
389    3       14.799047000000      12.223109000000       2.922862000000
390    2       15.162704000000      11.602080000000       2.229569000000
391    3        4.999306000000      10.685148000000      32.381344000000
392    3        4.752657000000       9.224683000000      31.993881000000
393    2        4.541242000000      10.204036000000      31.728041000000
394    3        9.793468000000      13.108704000000       9.175491000000
395    3       11.136037000000      13.469812000000       9.876359000000
396    2       10.720202000000      12.829161000000       9.217774000000
397    3        2.058227000000       5.385119000000       5.924515000000
398    3        1.321982000000       5.153873000000       7.292562000000
399    2        2.206795000000       5.384617000000       6.910263000000
400    3       17.057232000000       9.276798000000       3.981853000000
401    3       17.954788000000       9.047494000000       5.264051000000
402    2       18.016880000000       9.302133000000       4.277079000000
403    3       14.763044000000      11.864788000000      34.586964000000
404    3       14.362278000000      11.977871000000       0.441033000000
405    2       14.108715000000      12.279408000000      35.233208000000
406    3        0.072679000000       6.612266000000       0.655275000000
407    3        1.570524000000       7.165255000000       0.905387000000