# File generated with Atomsk by j281j388 on 2026-06-02 11:08:56

864  atoms
3  atom types

0.000000000000      20.251000000000  xlo xhi
0.000000000000      14.320000000000  ylo yhi
0.000000000000      35.707675000000  zlo zhi

Masses

1   28.08500000             # Si
2   15.99900000             # O
3   1.00800000              # H

Atoms # atomic

1    1        2.485586000000       1.788918000000      12.422896000000
2    2        2.293582000000       2.927757000000      11.266819000000
3    3        1.503588000000       3.429308000000      10.982866000000
4    1        9.970775000000       7.624177000000      13.138227000000
5    2        9.957510000000       6.597903000000      11.830326000000
6    3       10.773725000000       6.335839000000      11.309059000000
7    1        0.053069000000       7.446552000000      12.257841000000
8    2        0.231378000000       6.830868000000      10.725804000000
9    3        1.134562000000       7.131929000000      10.242775000000
10    1        5.370980000000       7.496376000000      12.630696000000
11    2        4.927680000000       6.730569000000      11.245565000000
12    3        5.560282000000       6.231428000000      10.673501000000
13    1        7.657598000000       1.914441000000      12.510473000000
14    2        7.308704000000       2.308026000000      10.945024000000
15    3        6.350160000000       2.450228000000      10.701197000000
16    1       20.247498000000      14.081896000000      12.743205000000
17    2       19.643373000000      13.186085000000      11.487329000000
18    3       19.024738000000      12.430957000000      11.717467000000
19    1       19.929621000000       7.589339000000      22.237406000000
20    2       19.390278000000       6.511032000000      23.406197000000
21    3       18.393970000000       6.480423000000      23.521280000000
22    1        4.962501000000       7.276652000000      22.892273000000
23    2        4.750955000000       6.705678000000      24.408039000000
24    3        4.662769000000       7.446725000000      25.168230000000
25    1        3.053323000000       2.072402000000      22.946825000000
26    2        2.848877000000       2.941680000000      24.342329000000
27    3        2.816602000000       2.616066000000      25.288656000000
28    1        8.042577000000       1.785771000000      22.299227000000
29    2        7.487082000000       3.076106000000      23.250641000000
30    3        6.496196000000       3.187863000000      23.396292000000
31    1        2.777868000000       9.174261000000      12.519679000000
32    2        3.115952000000       9.522984000000      10.980107000000
33    3        3.442889000000      10.430535000000      10.713280000000
34    1        7.656837000000       9.673963000000      12.837041000000
35    2        7.941988000000      11.043113000000      11.951846000000
36    3        7.169663000000      11.661359000000      12.102181000000
37    1        5.088142000000       0.109307000000      12.776402000000
38    2        5.723578000000      13.194256000000      11.851068000000
39    3        5.555768000000      13.314084000000      10.859310000000
40    1        5.525128000000       0.174720000000      22.910564000000
41    2        5.638350000000      13.791845000000      24.389624000000
42    3        6.278201000000      14.095325000000      25.086248000000
43    1        2.280276000000       9.246303000000      22.388460000000
44    2        2.316286000000      10.633075000000      23.449633000000
45    3        3.057668000000      10.811238000000      24.093792000000
46    1        0.438801000000       0.195385000000      22.658266000000
47    2       20.069086000000      13.782387000000      23.989622000000
48    3        0.100783000000      12.826196000000      24.313169000000
49    1        7.661227000000       9.029970000000      23.063015000000
50    2        7.140276000000       9.628991000000      24.490639000000
51    3        7.828793000000      10.193777000000      24.900875000000
52    1       10.298402000000       0.057284000000      23.282581000000
53    2       10.084305000000      13.558808000000      24.695158000000
54    3       10.561764000000      14.014999000000      25.471264000000
55    1       12.633412000000       2.278905000000      12.647183000000
56    2       12.288703000000       2.961089000000      11.219676000000
57    3       12.740078000000       2.519427000000      10.375167000000
58    1       15.021123000000       7.834523000000      12.768933000000
59    2       14.767201000000       6.659585000000      11.607577000000
60    3       13.836392000000       6.416557000000      11.520968000000
61    1       18.168594000000       1.875267000000      12.409396000000
62    2       18.714096000000       2.184326000000      10.908989000000
63    3       19.361351000000       2.987515000000      10.868659000000
64    1       10.139239000000       6.935163000000      22.943893000000
65    2       10.306309000000       5.902633000000      24.244104000000
66    3       10.830247000000       6.327775000000      25.017019000000
67    1       12.746348000000       1.996163000000      22.852360000000
68    2       12.704473000000       2.971981000000      24.189617000000
69    3       12.012649000000       3.618021000000      24.297268000000
70    1       18.309418000000       2.226161000000      22.591730000000
71    2       18.625593000000       3.367909000000      23.707991000000
72    3       19.202320000000       4.117561000000      23.513494000000
73    1       15.467513000000       7.899450000000      22.666229000000
74    2       16.414648000000       6.942065000000      23.618078000000
75    3       16.398073000000       7.261012000000      24.545082000000
76    1       12.572727000000       9.593787000000      13.141635000000
77    2       12.205183000000      10.812176000000      12.060197000000
78    3       11.363896000000      10.530472000000      11.554369000000
79    1       17.795330000000       9.427890000000      12.828381000000
80    2       17.494949000000      10.861774000000      11.968560000000
81    3       16.747173000000      11.210396000000      12.441068000000
82    1       15.328750000000       0.360105000000      12.736249000000
83    2       15.184683000000      13.344207000000      11.755445000000
84    3       15.597652000000      13.564664000000      10.834944000000
85    1       10.272720000000       0.214315000000      12.988229000000
86    2       10.925128000000      13.551564000000      11.766780000000
87    3       11.482318000000      12.869338000000      12.127024000000
88    1       15.586965000000       0.585800000000      23.127810000000
89    2       15.299864000000      14.228819000000      24.624609000000
90    3       14.796461000000      13.406783000000      24.632795000000
91    1       12.571354000000       8.841437000000      23.424053000000
92    2       12.086273000000       9.223330000000      24.967579000000
93    3       11.217076000000       9.768497000000      24.925676000000
94    1       17.749527000000       9.871228000000      22.665991000000
95    2       18.217257000000      10.036150000000      24.285646000000
96    3       17.681194000000       9.679327000000      25.016724000000
97    1       20.116957000000       5.499875000000      14.772587000000
98    1        2.835963000000       2.136427000000      17.511948000000
99    1        5.360967000000       5.476923000000      14.915342000000
100    1        2.552054000000       3.952229000000      14.924805000000
101    1        7.566055000000       3.429803000000      15.011729000000
102    1        0.233613000000       0.525842000000      17.564327000000
103    1        2.466140000000       3.715014000000      20.232475000000
104    1       20.203003000000       5.632054000000      19.920071000000
105    1        5.033924000000       5.292932000000      20.270237000000
106    1        7.507081000000       3.284267000000      19.705524000000
107    1        7.267928000000       1.176395000000      17.144403000000
108    1        5.062083000000      12.627915000000      15.250972000000
109    1        7.625847000000      11.198736000000      15.521855000000
110    1        0.439316000000      12.465549000000      15.525431000000
111    1        2.848688000000      10.706826000000      14.968657000000
112    1        7.174849000000       9.574879000000      17.925320000000
113    1        4.802562000000      14.056895000000      17.777020000000
114    1       20.236481000000       7.224560000000      17.323792000000
115    1        2.311861000000      10.776420000000      19.594250000000
116    1        0.142361000000      12.911549000000      19.945587000000
117    1        4.676676000000      12.657299000000      20.505447000000
118    1        7.506521000000      10.988883000000      20.578060000000
119    1        2.740579000000       8.619783000000      17.266998000000
120    1        5.305095000000       7.089176000000      17.624359000000
121    1        9.742444000000       5.788462000000      15.610375000000
122    1       15.197560000000       7.514491000000      17.960613000000
123    1       15.244947000000       6.052547000000      15.348169000000
124    1       17.568813000000       3.885448000000      14.875167000000
125    1       12.705380000000       4.156913000000      15.250993000000
126    1       12.638376000000       3.861418000000      20.284286000000
127    1       14.895313000000       5.821225000000      20.370403000000
128    1       17.545322000000       4.078475000000      20.077166000000
129    1       17.889204000000       2.279787000000      17.544220000000
130    1        9.826479000000       5.626332000000      20.176004000000
131    1       13.143656000000       1.993478000000      17.668535000000
132    1       15.628317000000       0.260087000000      18.003176000000
133    1       10.418983000000      12.655347000000      15.507879000000
134    1       13.083887000000      11.310517000000      15.633257000000
135    1       17.741924000000       9.188805000000      18.198675000000
136    1       18.099380000000      10.871246000000      15.599891000000
137    1       15.817425000000      12.867267000000      15.282215000000
138    1        9.683890000000       7.995371000000      18.157116000000
139    1       13.111319000000       9.771179000000      18.272337000000
140    1       12.752806000000      10.963691000000      21.117662000000
141    1       10.072466000000      12.625477000000      20.685719000000
142    1       15.167897000000      12.955760000000      20.645687000000
143    1       17.836252000000      11.395048000000      20.291483000000
144    1       10.310106000000       0.137567000000      17.980009000000
145    2        7.478362000000       1.969499000000      15.748663000000
146    2        8.213258000000       3.153519000000      13.508346000000
147    2        6.285065000000       1.267341000000      13.246856000000
148    2        1.663619000000       1.065766000000      17.021551000000
149    2        8.616796000000       4.489696000000      15.753823000000
150    2        0.213590000000       6.810867000000      15.759454000000
151    2        6.006694000000       3.956157000000      14.886141000000
152    2        1.406199000000       0.533941000000      12.311068000000
153    2        3.886149000000       0.895006000000      11.935180000000
154    2        2.748068000000       2.654363000000      13.858548000000
155    2        3.695478000000       5.232488000000      14.772030000000
156    2        2.698732000000       3.357027000000      16.474918000000
157    2        1.029026000000       4.417961000000      14.647753000000
158    2        5.748471000000       6.105364000000      16.424601000000
159    2        6.076874000000       6.543259000000      13.784114000000
160    2        8.912784000000       0.850727000000      12.189209000000
161    2        4.154370000000       1.236908000000      17.358427000000
162    2       19.867207000000       6.243332000000      13.221763000000
163    2        2.605503000000       2.448179000000      19.180792000000
164    2        0.915608000000       4.338641000000      20.400570000000
165    2        3.592339000000       4.832857000000      19.736029000000
166    2        2.927395000000       3.189991000000      21.714354000000
167    2        0.217974000000       7.040802000000      20.788754000000
168    2        4.600988000000       1.590193000000      22.901484000000
169    2        2.014953000000       0.857397000000      22.758501000000
170    2        5.077748000000       5.998003000000      21.806999000000
171    2        5.567019000000       6.481478000000      19.172625000000
172    2        6.950400000000       2.353330000000      18.290762000000
173    2        8.612407000000       4.578167000000      19.629963000000
174    2        6.163035000000       4.084943000000      20.271786000000
175    2        8.148219000000       2.115040000000      20.681953000000
176    2        7.122070000000       0.398671000000      22.378344000000
177    2        0.181317000000       5.836948000000      18.230747000000
178    2        9.454062000000       1.458036000000      23.081347000000
179    2        8.857323000000       0.728025000000      17.545290000000
180    2        9.535125000000       7.131224000000      19.611435000000
181    2        6.360624000000      14.219108000000      17.284781000000
182    2        7.225173000000       9.960823000000      14.496318000000
183    2       20.026529000000      13.636997000000      16.491795000000
184    2        4.253752000000      12.840961000000      16.754555000000
185    2        0.366812000000      12.960986000000      13.936220000000
186    2        4.019446000000       8.261378000000      13.178864000000
187    2        1.452437000000       8.213325000000      12.734488000000
188    2        2.019307000000      11.951917000000      15.814431000000
189    2        2.633953000000      10.650816000000      13.305915000000
190    2        4.533062000000      11.151112000000      14.961652000000
191    2        2.772146000000       9.198086000000      15.675808000000
192    2        8.429274000000       8.713405000000      17.340942000000
193    2        7.118067000000      11.005681000000      17.098814000000
194    2        6.715566000000      12.530253000000      15.010350000000
195    2        4.564043000000      13.853856000000      14.229700000000
196    2        9.296812000000      11.448978000000      15.330079000000
197    2        6.468100000000       8.640059000000      12.251898000000
198    2        9.078798000000       8.966255000000      12.726052000000
199    2        1.242406000000       8.274318000000      17.698309000000
200    2        3.038096000000       9.922320000000      18.374498000000
201    2        0.927113000000      11.602667000000      19.323895000000
202    2        3.328114000000      11.839582000000      20.269503000000
203    2        1.988520000000       9.686642000000      20.871912000000
204    2        0.370638000000      14.196998000000      19.033119000000
205    2        4.692762000000      13.426560000000      21.948109000000
206    2        4.729779000000      13.861770000000      19.376587000000
207    2        7.453310000000       9.662281000000      19.578295000000
208    2        8.694803000000      11.954387000000      20.117043000000
209    2        5.991098000000      11.687184000000      20.366955000000
210    2        7.781493000000      10.465466000000      22.134741000000
211    2        6.534209000000       7.964304000000      22.549807000000
212    2        3.763651000000       8.353757000000      22.521883000000
213    2        3.646111000000       7.229256000000      17.335426000000
214    2        1.033981000000       8.285575000000      22.917110000000
215    2        5.853961000000       8.691250000000      17.459587000000
216    2        9.059110000000       8.168740000000      23.281954000000
217    2        0.548452000000      13.374670000000      21.480635000000
218    2       11.682433000000       1.074353000000      17.871082000000
219    2       19.267448000000       1.003836000000      13.301232000000
220    2       18.886227000000       4.676870000000      15.498505000000
221    2       19.437258000000       1.802977000000      17.420160000000
222    2       17.814568000000       3.283243000000      13.362134000000
223    2       17.340002000000       2.670515000000      16.024752000000
224    2       11.305241000000       1.519832000000      13.155813000000
225    2       13.971596000000       1.302033000000      12.590631000000
226    2        9.912678000000       6.700652000000      17.032333000000
227    2       13.058916000000       3.488120000000      13.736136000000
228    2       12.798358000000       3.073155000000      16.494373000000
229    2       13.795339000000       5.302116000000      15.764164000000
230    2       11.142691000000       4.880812000000      15.225416000000
231    2       16.767776000000       1.046436000000      12.104362000000
232    2       14.772882000000       7.215901000000      14.271586000000
233    2       15.850398000000       6.851308000000      16.647011000000
234    2       16.386570000000       5.007188000000      14.674860000000
235    2        9.291947000000       6.874049000000      14.428742000000
236    2       13.352061000000       2.886503000000      19.103254000000
237    2       11.397779000000       4.944672000000      19.869625000000
238    2       13.644189000000       5.001072000000      21.008652000000
239    2       12.148610000000       2.790827000000      21.494122000000
240    2       14.399717000000       1.758850000000      22.655581000000
241    2       11.969561000000       0.478671000000      23.126926000000
242    2       15.156657000000       7.242301000000      21.157591000000
243    2       14.520255000000       6.260411000000      18.778231000000
244    2       17.508511000000       3.564695000000      18.540327000000
245    2       18.608740000000       5.321691000000      20.396355000000
246    2       16.185541000000       4.758731000000      20.483387000000
247    2       17.798008000000       2.818524000000      21.102348000000
248    2       19.624184000000       1.300889000000      22.119316000000
249    2       17.107254000000       1.029212000000      18.324436000000
250    2        9.798058000000       5.831915000000      21.802155000000
251    2       17.052332000000       1.382891000000      23.166668000000
252    2       14.506642000000       1.242654000000      17.176062000000
253    2       16.425468000000       8.352840000000      18.659697000000
254    2       16.528254000000       8.384133000000      12.459611000000
255    2       10.633711000000      13.102015000000      17.046118000000
256    2       19.167311000000       8.698513000000      12.359175000000
257    2       18.782419000000       7.976174000000      17.622850000000
258    2       14.019882000000       9.105120000000      12.612662000000
259    2       11.442333000000       8.305016000000      13.114789000000
260    2       13.025997000000      10.967933000000      17.195358000000
261    2       12.705160000000       9.996515000000      14.705663000000
262    2       14.613305000000      11.754129000000      15.135989000000
263    2       11.959628000000      12.360862000000      15.085852000000
264    2       15.650914000000      14.221500000000      14.261182000000
265    2        9.845986000000      13.887938000000      14.475423000000
266    2       17.512831000000      10.378935000000      17.068800000000
267    2       15.935107000000      13.333798000000      16.874187000000
268    2       17.337065000000      12.241985000000      15.090260000000
269    2       17.806301000000       9.724040000000      14.457407000000
270    2       19.707378000000      11.103636000000      15.839961000000
271    2       11.305750000000       8.850751000000      18.354752000000
272    2       13.344973000000      10.199316000000      19.775927000000
273    2       11.244969000000      11.473527000000      20.808844000000
274    2       13.715500000000      12.346027000000      21.151777000000
275    2       12.879627000000      10.293787000000      22.619146000000
276    2       14.106602000000       8.207868000000      23.505985000000
277    2        9.843501000000      13.203823000000      22.181740000000
278    2       11.595562000000       7.768957000000      22.685911000000
279    2       10.412326000000      13.771120000000      19.578733000000
280    2       14.841205000000      13.929870000000      19.305622000000
281    2       15.788486000000      13.681900000000      22.004156000000
282    2       18.177805000000       9.969455000000      19.546871000000
283    2       18.749987000000      12.645741000000      19.860458000000
284    2       16.215519000000      11.787091000000      20.018152000000
285    2       17.988543000000      11.308931000000      21.970684000000
286    2       18.725834000000       8.728196000000      22.061893000000
287    2       16.210777000000       9.400878000000      22.445017000000
288    2       13.990010000000       8.502381000000      17.586533000000
289    3       15.550267000000      11.857226000000      26.735926000000
290    3       14.395199000000      10.871724000000      26.635790000000
291    2       14.602630000000      11.815431000000      26.429979000000
292    3       19.724335000000      13.729859000000      28.024349000000
293    3        0.576907000000      12.885254000000      28.709244000000
294    2        0.036715000000      13.687552000000      28.866539000000
295    3       16.101877000000       6.810523000000      29.843813000000
296    3       16.968477000000       8.091857000000      29.271694000000
297    2       16.395041000000       7.786994000000      30.023544000000
298    3       12.050926000000      11.644935000000       3.876064000000
299    3       11.377995000000      11.411938000000       5.204194000000
300    2       11.315862000000      11.069062000000       4.195471000000
301    3        1.255220000000       2.744151000000      32.207180000000
302    3       20.090740000000       3.490189000000      32.566299000000
303    2        0.655871000000       3.010281000000      32.939968000000
304    3        4.815326000000      11.615320000000      28.703524000000
305    3        5.418475000000      11.321143000000      30.139257000000
306    2        5.614874000000      11.145737000000      29.163216000000
307    3       19.349625000000      13.557719000000      34.450218000000
308    3       17.778931000000      14.003909000000      34.359802000000
309    2       18.386421000000      13.183405000000      34.464592000000
310    3        1.285344000000      14.126137000000      33.346699000000
311    3        0.805440000000       1.069232000000      33.985016000000
312    2        0.950417000000       0.141679000000      34.235920000000
313    3       11.276893000000       6.989654000000      34.161457000000
314    3       10.046961000000       7.887778000000      34.316551000000
315    2       10.575982000000       7.206443000000      34.857635000000
316    3        2.655796000000      12.537610000000       7.446672000000
317    3        4.102434000000      12.587451000000       8.342236000000
318    2        3.550879000000      12.057465000000       7.680898000000
319    3        7.378294000000       8.638032000000       1.635462000000
320    3        6.119503000000       7.959512000000       2.244532000000
321    2        6.646613000000       7.952175000000       1.392020000000
322    3        6.208235000000       9.323496000000       6.407303000000
323    3        4.752494000000       9.025570000000       6.944302000000
324    2        5.531411000000       8.618118000000       6.360609000000
325    3       11.364965000000       8.644163000000       2.185897000000
326    3       10.916157000000       9.774082000000       3.186422000000
327    2       10.603790000000       8.942975000000       2.766686000000
328    3       13.704317000000       5.916591000000      27.298916000000
329    3       14.628359000000       4.653239000000      26.765390000000
330    2       14.608274000000       5.581213000000      27.191542000000
331    3        0.393927000000      11.791907000000       3.478176000000
332    3       19.207624000000      10.892716000000       3.642589000000
333    2       19.718946000000      11.574699000000       3.055037000000
334    3       20.232521000000      11.066391000000       1.361826000000
335    3        1.003708000000      11.972105000000       0.709061000000
336    2        0.469002000000      11.153291000000       0.481966000000
337    3       10.924322000000       3.146996000000      26.915171000000
338    3       11.472208000000       3.050349000000      28.307915000000
339    2       11.623785000000       3.514448000000      27.426130000000
340    3       19.148237000000      13.177054000000      29.793926000000
341    3       17.714424000000      13.579791000000      30.296007000000
342    2       18.251661000000      12.756136000000      30.100510000000
343    3        2.165652000000       6.557484000000      32.662647000000
344    3        1.475732000000       7.431653000000      31.522240000000
345    2        2.350023000000       7.317496000000      32.064167000000
346    3        7.030650000000       3.633665000000       5.968979000000
347    3        6.017378000000       4.217906000000       4.837208000000
348    2        6.918392000000       4.295477000000       5.216074000000
349    3       16.339260000000       0.307909000000       8.732454000000
350    3       15.370703000000      13.609825000000       8.084452000000
351    2       15.675473000000      13.904827000000       8.950394000000
352    3        3.287769000000       8.996635000000       8.497702000000
353    3        3.436172000000      10.571824000000       7.784128000000
354    2        3.433108000000       9.539566000000       7.685443000000
355    3        1.873064000000      11.039502000000       4.698733000000
356    3        2.650289000000      12.308341000000       4.017724000000
357    2        1.815429000000      11.894366000000       4.174292000000
358    3        5.752966000000       2.194273000000      27.755421000000
359    3        5.519288000000       3.542505000000      26.836889000000
360    2        5.876720000000       3.207316000000      27.705053000000
361    3       19.942656000000       5.362740000000      28.038776000000
362    3        0.082296000000       6.839231000000      28.683077000000
363    2       20.041485000000       6.340668000000      27.865856000000
364    3       19.901020000000       5.467737000000       7.388230000000
365    3       20.005260000000       3.836727000000       7.262441000000
366    2       20.245930000000       4.612603000000       7.779420000000
367    3       15.122401000000       5.175010000000      28.897226000000
368    3       16.214935000000       4.421807000000      29.714169000000
369    2       15.565290000000       5.158247000000      29.802294000000
370    3       14.580864000000      11.348793000000       6.023922000000
371    3       13.650050000000      12.423148000000       6.336876000000
372    2       14.624846000000      12.311668000000       6.023770000000
373    3        4.894572000000       0.484527000000      34.317413000000
374    3        5.637330000000      13.456544000000      34.234745000000
375    2        4.697811000000      13.844519000000      34.145927000000
376    3       13.934732000000      13.626727000000      30.106279000000
377    3       13.147991000000       0.812284000000      29.906034000000
378    2       14.023004000000       0.252863000000      29.741749000000
379    3       17.479870000000       5.523740000000       6.255524000000
380    3       16.186279000000       4.650640000000       6.713918000000
381    2       16.582653000000       5.538202000000       6.546996000000
382    3       18.093279000000      12.010665000000      33.182827000000
383    3       18.287260000000      11.762997000000      31.649075000000
384    2       17.878231000000      11.343748000000      32.474178000000
385    3       16.802002000000       4.290942000000      35.045219000000
386    3       16.415703000000       5.713134000000      34.381367000000
387    2       16.357512000000       4.724850000000      34.255562000000
388    3       16.251637000000      11.459291000000       1.636695000000
389    3       14.864949000000      11.515593000000       2.427802000000
390    2       15.435444000000      10.862218000000       1.807123000000
391    3        5.470934000000      11.220719000000      32.749775000000
392    3        5.150334000000       9.940506000000      32.054482000000
393    2        5.118394000000      10.898796000000      31.842842000000
394    3       11.122638000000      13.288952000000       9.236240000000
395    3       12.434966000000      12.993134000000       9.985949000000
396    2       11.854411000000      12.617714000000       9.299470000000
397    3        2.480596000000       5.658445000000       6.260286000000
398    3        1.733786000000       4.931927000000       7.380756000000
399    2        2.469938000000       5.598923000000       7.229215000000
400    3       17.272301000000       9.519242000000       4.267463000000
401    3       18.418694000000       9.639393000000       5.416647000000
402    2       18.271437000000       9.741929000000       4.409325000000
403    3       14.606594000000      11.319602000000      34.225578000000
404    3       14.446588000000      11.352735000000       0.078297000000
405    2       14.205379000000      11.878654000000      35.020134000000
406    3        0.102376000000       6.372226000000       0.152051000000
407    3        1.178290000000       7.456371000000      35.677227000000