# File generated with Atomsk by j281j388 on 2026-06-04 11:47:55

864  atoms
3  atom types

0.000000000000      20.251000000000  xlo xhi
0.000000000000      14.320000000000  ylo yhi
0.000000000000      35.707675000000  zlo zhi

Masses

1   28.08500000             # Si
2   15.99900000             # O
3   1.00800000              # H

Atoms # atomic

1    1        2.629615000000       2.171167000000      12.576720000000
2    2        2.639229000000       3.429006000000      11.505503000000
3    3        1.725333000000       3.773390000000      11.168813000000
4    1       10.222227000000       7.935750000000      12.935971000000
5    2       10.199567000000       6.778468000000      11.685699000000
6    3       11.036069000000       6.211275000000      11.420057000000
7    1        0.144148000000       7.629045000000      12.289233000000
8    2       20.204746000000       7.273098000000      10.740473000000
9    3        0.849133000000       7.459657000000      10.237700000000
10    1        5.508738000000       6.815729000000      13.144668000000
11    2        5.362156000000       5.474111000000      12.061584000000
12    3        6.166875000000       5.469819000000      11.416863000000
13    1        7.925942000000       2.115124000000      13.153677000000
14    2        7.522289000000       3.092097000000      11.875720000000
15    3        6.679353000000       2.966272000000      11.380403000000
16    1        0.358379000000       0.025135000000      12.549666000000
17    2        0.448201000000      12.828454000000      11.879273000000
18    3        1.219024000000      12.299261000000      12.160647000000
19    1        0.199559000000       7.638713000000      22.498196000000
20    2       20.140491000000       6.690545000000      23.860468000000
21    3       19.255350000000       6.901618000000      24.242561000000
22    1        5.781100000000       7.182283000000      23.082247000000
23    2        5.853340000000       6.613107000000      24.630760000000
24    3        5.096775000000       6.974691000000      25.200666000000
25    1        2.394969000000       2.305336000000      22.962711000000
26    2        3.080945000000       2.987338000000      24.309439000000
27    3        2.701150000000       2.691544000000      25.178438000000
28    1        7.765937000000       2.203599000000      22.792122000000
29    2        7.888529000000       2.548640000000      24.380114000000
30    3        7.030025000000       3.005582000000      24.715010000000
31    1        3.196008000000       8.704487000000      12.549220000000
32    2        3.821337000000       8.930460000000      11.013958000000
33    3        4.803753000000       9.073164000000      11.107800000000
34    1        7.404465000000       9.260781000000      12.895709000000
35    2        6.856501000000      10.435113000000      11.919792000000
36    3        6.432648000000      11.323282000000      12.097427000000
37    1        5.219947000000       0.411495000000      13.140731000000
38    2        5.439660000000      13.544937000000      12.033134000000
39    3        4.984564000000      13.590349000000      10.955106000000
40    1        4.910943000000       0.528768000000      22.801912000000
41    2        4.887368000000       0.082125000000      24.454687000000
42    3        5.511683000000       0.666190000000      24.870758000000
43    1        3.172626000000       9.103285000000      22.571369000000
44    2        3.056248000000      10.406591000000      23.558826000000
45    3        3.757257000000      10.940909000000      23.996471000000
46    1        0.099357000000       0.364868000000      22.775219000000
47    2       19.733772000000      13.736552000000      23.989029000000
48    3       19.977997000000      12.778632000000      23.914480000000
49    1        7.920934000000       9.382323000000      23.268864000000
50    2        7.114163000000       9.923283000000      24.672625000000
51    3        7.427577000000       9.392499000000      25.432987000000
52    1       10.229531000000       0.289964000000      22.743551000000
53    2        9.951446000000      14.013594000000      24.283543000000
54    3       10.610846000000      14.197115000000      24.987640000000
55    1       12.880322000000       2.036236000000      12.913893000000
56    2       12.452466000000       2.736731000000      11.442611000000
57    3       12.820843000000       2.244864000000      10.598743000000
58    1       15.195353000000       7.360182000000      12.731981000000
59    2       14.661033000000       6.655199000000      11.304486000000
60    3       13.673128000000       6.346939000000      11.512705000000
61    1       18.166481000000       1.872323000000      11.960660000000
62    2       18.301489000000       2.686044000000      10.551818000000
63    3       19.005648000000       3.400353000000      10.495110000000
64    1       10.846216000000       8.520997000000      22.993713000000
65    2       11.124416000000       7.298528000000      24.106493000000
66    3       11.366315000000       7.466660000000      25.082037000000
67    1       12.748418000000       2.429644000000      22.814047000000
68    2       12.722051000000       3.269872000000      24.285658000000
69    3       11.894635000000       3.922907000000      24.344549000000
70    1       17.840094000000       2.361886000000      22.320162000000
71    2       18.371861000000       3.642693000000      23.228628000000
72    3       18.817829000000       4.236951000000      22.571579000000
73    1       15.531990000000       7.025918000000      22.268520000000
74    2       16.356504000000       6.150369000000      23.492859000000
75    3       16.045874000000       6.637169000000      24.284145000000
76    1       13.009130000000       9.478086000000      12.385897000000
77    2       12.980895000000       9.301516000000      10.734300000000
78    3       12.035407000000       9.246322000000      10.549337000000
79    1       17.743036000000       9.381043000000      12.507626000000
80    2       17.580172000000      10.415241000000      11.145432000000
81    3       17.261677000000      11.306069000000      11.515012000000
82    1       15.575196000000       0.373882000000      12.443365000000
83    2       15.814711000000      13.301342000000      11.647290000000
84    3       15.620354000000      13.328519000000      10.636211000000
85    1       10.308299000000       0.284036000000      13.110863000000
86    2       10.849181000000      13.438396000000      12.041167000000
87    3       11.818134000000      13.634953000000      12.060278000000
88    1       15.411209000000       0.646501000000      22.861599000000
89    2       14.822934000000      14.203712000000      24.241926000000
90    3       14.799148000000      13.214632000000      24.054798000000
91    1       13.753971000000       9.543833000000      22.430700000000
92    2       14.321022000000      10.806028000000      23.299191000000
93    3       13.586550000000      11.218046000000      23.875349000000
94    1       17.590776000000       9.218046000000      22.107565000000
95    2       17.031347000000       9.406878000000      23.647860000000
96    3       16.298422000000      10.003474000000      23.803568000000
97    1        0.318836000000       5.504508000000      14.780966000000
98    1        2.820299000000       2.040999000000      17.715385000000
99    1        5.845543000000       5.008268000000      15.567245000000
100    1        2.890380000000       3.879606000000      15.189523000000
101    1        8.659125000000       3.583973000000      15.918883000000
102    1        0.422372000000      14.235445000000      17.687775000000
103    1        2.651458000000       3.905925000000      20.374182000000
104    1       20.198187000000       5.634463000000      20.030373000000
105    1        5.415544000000       5.576651000000      20.345837000000
106    1        8.201178000000       4.330104000000      20.485903000000
107    1        8.768031000000       1.717206000000      18.676964000000
108    1        4.920648000000      12.918464000000      15.561341000000
109    1        7.366083000000      10.931509000000      15.400009000000
110    1        0.108088000000      12.701859000000      14.957761000000
111    1        2.614013000000      10.711252000000      14.899199000000
112    1        7.872998000000       9.349947000000      18.000025000000
113    1        5.618016000000       0.465008000000      18.000137000000
114    1       20.164188000000       7.195886000000      17.340872000000
115    1        2.790616000000      10.567731000000      19.788534000000
116    1        0.594243000000      12.692124000000      20.501108000000
117    1        5.078646000000      12.939477000000      20.448252000000
118    1        7.681959000000      11.075348000000      20.654625000000
119    1        2.560785000000       8.463483000000      17.071201000000
120    1        5.471232000000       7.222109000000      17.751308000000
121    1       10.541849000000       6.200047000000      15.556463000000
122    1       15.736959000000       7.731599000000      17.297464000000
123    1       15.746706000000       5.376018000000      15.269519000000
124    1       18.369797000000       3.320322000000      14.812703000000
125    1       12.944886000000       4.139451000000      15.356736000000
126    1       12.383926000000       4.233054000000      20.119959000000
127    1       15.108366000000       5.506853000000      19.495224000000
128    1       17.795437000000       3.889289000000      19.783529000000
129    1       18.170973000000       1.906323000000      17.539682000000
130    1       10.575459000000       6.769959000000      20.314550000000
131    1       11.978591000000       2.276136000000      17.854681000000
132    1       15.075783000000       1.073274000000      17.839746000000
133    1       10.113088000000      12.482645000000      15.309221000000
134    1       13.214441000000      11.817441000000      14.300110000000
135    1       18.188627000000       9.607831000000      17.735271000000
136    1       17.546597000000      11.322512000000      14.983916000000
137    1       15.453935000000      13.625311000000      15.127876000000
138    1       11.090535000000       8.909277000000      17.840242000000
139    1       13.887082000000      10.144991000000      16.645332000000
140    1       13.585626000000      10.988333000000      19.816422000000
141    1       10.802375000000      12.222584000000      20.467249000000
142    1       15.495931000000      13.306460000000      20.242334000000
143    1       17.947584000000      11.532110000000      20.200577000000
144    1       10.525596000000      13.877403000000      18.050489000000
145    2        9.158239000000       2.534990000000      17.184977000000
146    2        8.786507000000       2.861734000000      14.425378000000
147    2        6.689160000000       1.142732000000      13.687207000000
148    2        1.593733000000       0.976522000000      17.355709000000
149    2        9.435942000000       5.048186000000      16.064739000000
150    2       19.777159000000       6.474266000000      15.862490000000
151    2        7.091784000000       3.914274000000      15.939122000000
152    2        1.484695000000       1.097135000000      12.060344000000
153    2        4.233675000000       1.639562000000      12.490614000000
154    2        2.435740000000       2.673736000000      14.161171000000
155    2        4.485009000000       4.256454000000      14.948313000000
156    2        2.647297000000       3.373108000000      16.761101000000
157    2        1.919670000000       5.304922000000      14.955958000000
158    2        5.397804000000       5.804645000000      16.925732000000
159    2        6.306102000000       6.152113000000      14.446838000000
160    2        9.113050000000       1.174308000000      12.355644000000
161    2        4.434876000000       1.540418000000      17.494421000000
162    2        0.189899000000       6.264011000000      13.272083000000
163    2        2.731134000000       2.558318000000      19.334120000000
164    2        1.446192000000       4.929956000000      19.823589000000
165    2        4.137203000000       4.556716000000      20.485310000000
166    2        2.128206000000       3.411506000000      21.833740000000
167    2        0.296002000000       6.793890000000      21.106112000000
168    2        3.570487000000       1.275067000000      22.141630000000
169    2        1.104835000000       1.449816000000      23.478785000000
170    2        5.827335000000       6.091058000000      21.843126000000
171    2        5.033317000000       6.839295000000      19.367207000000
172    2        8.903543000000       2.943549000000      19.783113000000
173    2        9.264297000000       5.626591000000      20.120977000000
174    2        6.765910000000       4.750778000000      19.780699000000
175    2        8.091579000000       3.737573000000      22.041851000000
176    2        6.227053000000       1.530838000000      22.463907000000
177    2       19.616457000000       6.213717000000      18.545567000000
178    2        8.895965000000       1.130842000000      22.127748000000
179    2        9.455184000000       0.250245000000      19.094072000000
180    2       11.073179000000       8.038892000000      19.297825000000
181    2        7.119089000000       1.136424000000      18.329832000000
182    2        7.112702000000       9.590869000000      14.443443000000
183    2        0.315667000000      12.978905000000      16.643435000000
184    2        5.542237000000      13.437226000000      16.994066000000
185    2        0.491315000000      14.176044000000      14.201976000000
186    2        3.995351000000       7.496471000000      13.398823000000
187    2        1.553337000000       8.601182000000      12.331874000000
188    2        1.251214000000      11.538002000000      14.365247000000
189    2        3.301477000000      10.045650000000      13.514913000000
190    2        3.544232000000      11.889848000000      15.739532000000
191    2        2.156973000000       9.371411000000      15.732581000000
192    2        9.475421000000       9.473162000000      17.663357000000
193    2        7.231338000000      10.481072000000      16.888485000000
194    2        6.179299000000      11.970064000000      14.966251000000
195    2        4.583254000000      14.226459000000      14.635500000000
196    2        9.004379000000      11.344698000000      14.980957000000
197    2        6.477219000000       7.931417000000      12.516495000000
198    2        9.003947000000       9.026501000000      12.585715000000
199    2        1.570593000000       7.220413000000      17.407322000000
200    2        2.525998000000       9.694003000000      18.381626000000
201    2        1.410963000000      11.226419000000      20.349150000000
202    2        3.965389000000      11.759373000000      19.933552000000
203    2        3.213819000000       9.417404000000      20.895697000000
204    2        1.027052000000      13.585594000000      19.127880000000
205    2        4.800037000000      13.374060000000      22.001799000000
206    2        4.957736000000      14.192212000000      19.393965000000
207    2        7.433045000000       9.839457000000      19.552044000000
208    2        9.263517000000      11.518132000000      20.210835000000
209    2        6.687178000000      12.335368000000      20.492676000000
210    2        7.331115000000      10.591155000000      22.246271000000
211    2        7.157106000000       7.969192000000      22.731077000000
212    2        4.325874000000       7.991216000000      22.926847000000
213    2        4.190210000000       8.085927000000      17.016058000000
214    2        1.646835000000       8.382253000000      22.782156000000
215    2        6.978009000000       7.953872000000      17.695864000000
216    2        9.509301000000       9.432179000000      23.476303000000
217    2        1.003419000000      13.733137000000      21.743196000000
218    2       11.341400000000       0.834991000000      17.462576000000
219    2       19.084074000000       0.456182000000      12.017991000000
220    2       19.919456000000       4.034690000000      14.868511000000
221    2       19.041283000000       0.506996000000      17.872643000000
222    2       18.522179000000       2.799012000000      13.283709000000
223    2       18.551807000000       2.130376000000      15.951023000000
224    2       11.619942000000       1.218151000000      13.668620000000
225    2       13.989120000000       0.906580000000      12.504440000000
226    2       11.060702000000       7.362538000000      16.663824000000
227    2       13.267060000000       3.193140000000      13.991325000000
228    2       12.082024000000       3.320100000000      16.549669000000
229    2       14.396973000000       4.628429000000      15.938269000000
230    2       11.893821000000       5.407040000000      14.986749000000
231    2       16.548172000000       1.503770000000      11.743670000000
232    2       15.539473000000       6.191770000000      13.820851000000
233    2       16.281147000000       6.611269000000      16.277498000000
234    2       17.027752000000       4.254326000000      15.186834000000
235    2        9.796825000000       7.043995000000      14.287823000000
236    2       11.476396000000       3.196179000000      19.114828000000
237    2       11.906482000000       5.784372000000      20.454054000000
238    2       13.880826000000       4.366368000000      19.247162000000
239    2       12.532811000000       3.519721000000      21.552269000000
240    2       14.293892000000       1.798947000000      22.559000000000
241    2       11.538882000000       1.330681000000      22.714342000000
242    2       14.998024000000       6.071457000000      21.094547000000
243    2       15.006373000000       6.847801000000      18.512054000000
244    2       18.547594000000       3.233626000000      18.453926000000
245    2       18.962702000000       4.718456000000      20.677856000000
246    2       16.564083000000       4.765097000000      19.198877000000
247    2       17.224226000000       2.693774000000      20.818914000000
248    2       19.172962000000       1.332424000000      22.003891000000
249    2       16.490089000000       1.934443000000      17.559570000000
250    2       10.234163000000       7.696343000000      21.660936000000
251    2       16.748674000000       1.557787000000      23.224573000000
252    2       13.668203000000       1.876113000000      18.085190000000
253    2       16.932926000000       8.579177000000      18.155874000000
254    2       16.586891000000       8.265420000000      12.317895000000
255    2        9.965678000000      12.810876000000      16.876205000000
256    2       19.128910000000       8.585217000000      12.830496000000
257    2       19.591040000000       8.674081000000      17.388996000000
258    2       14.093026000000       8.478458000000      13.235072000000
259    2       11.459137000000       9.065083000000      13.049545000000
260    2       14.109002000000      10.855850000000      15.248643000000
261    2       13.175282000000      11.061960000000      12.846621000000
262    2       13.988861000000      13.255921000000      14.457668000000
263    2       11.679101000000      12.068831000000      15.044188000000
264    2       16.202089000000       0.278204000000      14.054488000000
265    2        9.693778000000      13.883408000000      14.482419000000
266    2       17.881647000000      10.356288000000      16.310598000000
267    2       14.994212000000      14.294399000000      16.572815000000
268    2       16.322035000000      12.270161000000      15.466166000000
269    2       17.087452000000      10.361633000000      13.742699000000
270    2       18.809725000000      12.346007000000      14.577135000000
271    2       12.308994000000       9.672462000000      17.119396000000
272    2       14.097311000000      10.883301000000      18.240341000000
273    2       11.890267000000      10.931664000000      20.309036000000
274    2       14.146847000000      12.444860000000      20.492077000000
275    2       14.273137000000       9.770523000000      20.814102000000
276    2       14.352930000000       8.061821000000      22.950706000000
277    2       10.665437000000      13.303777000000      21.726646000000
278    2       12.096162000000       9.537975000000      22.688807000000
279    2       11.447062000000      13.109885000000      19.178684000000
280    2       15.155084000000       0.249650000000      19.269327000000
281    2       16.014681000000      13.964544000000      21.709089000000
282    2       18.511631000000      10.555002000000      18.996305000000
283    2       19.242510000000      12.378319000000      20.833302000000
284    2       16.671364000000      12.350562000000      19.573933000000
285    2       17.365519000000      10.667738000000      21.441231000000
286    2       19.197271000000       8.744959000000      22.299723000000
287    2       16.688595000000       8.043855000000      21.441736000000
288    2       14.788261000000       8.737239000000      16.518009000000
289    3       15.167848000000      11.626401000000      27.682732000000
290    3       14.051770000000      10.790244000000      26.811106000000
291    2       14.260515000000      11.714488000000      27.206673000000
292    3       19.185925000000      13.468902000000      27.729418000000
293    3        0.158014000000      12.667331000000      28.244923000000
294    2       19.867989000000      13.455653000000      28.469677000000
295    3       15.808866000000       6.656603000000      29.899273000000
296    3       16.609194000000       7.993852000000      29.340994000000
297    2       16.073071000000       7.597685000000      30.098154000000
298    3       12.167634000000      12.194796000000       3.913440000000
299    3       10.662201000000      12.520372000000       4.279209000000
300    2       11.205374000000      12.098646000000       3.581390000000
301    3        0.763138000000       2.878193000000      32.787437000000
302    3       19.704660000000       3.629616000000      33.291935000000
303    2        0.219796000000       3.005225000000      33.629906000000
304    3        4.773582000000      10.825407000000      28.820282000000
305    3        5.040654000000      10.205252000000      30.241516000000
306    2        5.291191000000      10.141405000000      29.293854000000
307    3       19.031864000000      14.058619000000      34.450222000000
308    3       17.427437000000      14.099452000000      34.259228000000
309    2       18.194490000000      13.492828000000      34.381119000000
310    3        0.843568000000       0.072011000000      33.597309000000
311    3        0.171596000000       1.396910000000      34.311913000000
312    2        0.159957000000       0.372370000000      34.344265000000
313    3       10.674190000000       6.874386000000      34.014359000000
314    3        9.618538000000       7.839116000000      34.566483000000
315    2       10.169180000000       7.078920000000      34.817520000000
316    3        2.094422000000      12.219916000000       7.499841000000
317    3        3.248528000000      12.349257000000       8.661754000000
318    2        2.971937000000      11.813073000000       7.812171000000
319    3        6.954374000000       8.944653000000       2.029269000000
320    3        5.701231000000       8.066572000000       2.622963000000
321    2        6.294578000000       8.157779000000       1.819164000000
322    3        5.914415000000       9.154735000000       6.656981000000
323    3        4.381590000000       8.908351000000       6.678819000000
324    2        5.234573000000       8.495491000000       6.449523000000
325    3       11.013637000000       9.241119000000       2.323155000000
326    3       10.923212000000      10.254958000000       3.464828000000
327    2       10.406626000000       9.456788000000       3.120820000000
328    3       13.708470000000       4.805856000000      27.307056000000
329    3       14.867517000000       3.918703000000      26.874941000000
330    2       14.666760000000       4.746680000000      27.486790000000
331    3       19.843315000000      10.758252000000       3.032575000000
332    3       18.535120000000       9.981631000000       2.810863000000
333    2       19.135607000000      10.586735000000       2.356913000000
334    3        0.076015000000      10.747219000000       0.504166000000
335    3        0.995066000000      12.084413000000       0.390199000000
336    2        0.986237000000      10.991926000000       0.161186000000
337    3       11.290895000000       4.465127000000      26.661390000000
338    3       11.257058000000       4.533649000000      28.201176000000
339    2       11.857841000000       4.731336000000      27.441452000000
340    3       18.537649000000      13.380635000000      29.876753000000
341    3       17.177195000000      13.958854000000      30.436008000000
342    2       17.593409000000      13.098025000000      30.147982000000
343    3        2.915052000000       6.180891000000      31.657251000000
344    3        1.587727000000       6.819393000000      32.182236000000
345    2        2.400127000000       6.446100000000      32.510292000000
346    3        6.702352000000       3.220825000000       5.930630000000
347    3        5.411207000000       3.838296000000       5.136761000000
348    2        6.336294000000       4.085321000000       5.501231000000
349    3       15.995436000000      14.308036000000       8.821560000000
350    3       15.062564000000      13.086332000000       8.342514000000
351    2       15.339962000000      13.658881000000       9.153330000000
352    3        2.716919000000       8.555437000000       8.112670000000
353    3        2.814941000000      10.127013000000       7.848146000000
354    2        2.860162000000       9.204479000000       7.411543000000
355    3        0.728479000000      10.026470000000       4.990382000000
356    3        1.718279000000      10.820972000000       4.066146000000
357    2        0.785881000000      10.873383000000       4.464970000000
358    3        5.351644000000       1.746877000000      28.086941000000
359    3        4.598356000000       3.142826000000      27.672300000000
360    2        5.314130000000       2.794804000000      28.252268000000
361    3        0.341658000000       4.901404000000      28.565660000000
362    3        0.706702000000       6.322470000000      29.298531000000
363    2        0.976466000000       5.695687000000      28.537220000000
364    3       18.985243000000       4.390418000000       7.603815000000
365    3       19.409132000000       2.823751000000       7.455700000000
366    2       19.539553000000       3.655739000000       8.005841000000
367    3       15.201145000000       4.612942000000      29.426456000000
368    3       16.357327000000       4.390278000000      30.384733000000
369    2       15.551980000000       4.962021000000      30.285036000000
370    3       14.195409000000      11.366993000000       6.993773000000
371    3       13.585399000000      12.748306000000       7.295176000000
372    2       14.422783000000      12.325173000000       6.979792000000
373    3        4.562567000000       0.300992000000      34.265724000000
374    3        4.629952000000      13.034747000000      34.280682000000
375    2        4.038494000000      13.804061000000      34.119198000000
376    3       13.671632000000      13.817909000000      30.093708000000
377    3       12.972872000000       0.904948000000      29.632874000000
378    2       13.799770000000       0.342232000000      29.617773000000
379    3       16.440685000000       4.741652000000       6.682200000000
380    3       15.099148000000       3.878955000000       6.441875000000
381    2       15.507603000000       4.777797000000       6.313156000000
382    3       17.760418000000      12.264290000000      33.458218000000
383    3       17.683512000000      11.687586000000      31.892405000000
384    2       17.463200000000      11.432057000000      32.844864000000
385    3       16.354168000000       4.560548000000      35.041653000000
386    3       16.160915000000       6.042047000000      34.454899000000
387    2       16.251499000000       5.056643000000      34.220413000000
388    3       16.046562000000      11.884933000000       1.966088000000
389    3       14.770690000000      12.297323000000       2.816474000000
390    2       15.127833000000      11.653571000000       2.153419000000
391    3        4.800913000000      11.082399000000      32.375977000000
392    3        4.421358000000       9.470905000000      32.338058000000
393    2        4.290678000000      10.397899000000      31.891026000000
394    3        9.840435000000      12.748389000000       9.043339000000
395    3       10.547205000000      12.468983000000      10.370889000000
396    2       10.499842000000      12.140074000000       9.484528000000
397    3        1.898200000000       5.051782000000       6.241610000000
398    3        1.038060000000       4.414709000000       7.346904000000
399    2        1.859526000000       4.964831000000       7.256416000000
400    3       16.814020000000       8.785292000000       3.941151000000
401    3       17.881495000000       8.745662000000       5.206017000000
402    2       17.817822000000       8.781949000000       4.146454000000
403    3       14.183509000000      11.828650000000      34.717312000000
404    3       13.973173000000      12.206587000000       0.423843000000
405    2       13.516067000000      12.280272000000      35.302673000000
406    3       19.763006000000       6.924844000000       0.472413000000
407    3        0.736242000000       7.820668000000       0.272655000000