# File generated with Atomsk by j281j388 on 2026-06-02 11:08:44

864  atoms
3  atom types

0.000000000000      20.251000000000  xlo xhi
0.000000000000      14.320000000000  ylo yhi
0.000000000000      35.707675000000  zlo zhi

Masses

1   28.08500000             # Si
2   15.99900000             # O
3   1.00800000              # H

Atoms # atomic

1    1        2.365655000000       1.701162000000      12.844193000000
2    2        2.562912000000       2.757341000000      11.538154000000
3    3        1.744872000000       3.307520000000      11.253953000000
4    1       10.295257000000       7.810329000000      12.748112000000
5    2       10.061238000000       6.667043000000      11.533944000000
6    3       10.848370000000       6.226428000000      11.223104000000
7    1        0.074464000000       7.443563000000      12.168165000000
8    2       20.138105000000       6.598721000000      10.711772000000
9    3        0.646385000000       6.845967000000      10.091874000000
10    1        5.150241000000       7.666961000000      12.481460000000
11    2        4.601415000000       7.032469000000      11.059248000000
12    3        5.328637000000       6.844138000000      10.407742000000
13    1        7.609777000000       2.145911000000      12.482545000000
14    2        7.404194000000       3.162309000000      11.137420000000
15    3        6.454883000000       2.990114000000      10.624906000000
16    1       20.029081000000      14.011513000000      12.886771000000
17    2       20.110483000000      12.927814000000      11.574649000000
18    3       19.968979000000      12.005912000000      11.878427000000
19    1        0.056819000000       7.704893000000      22.509375000000
20    2       19.593191000000       6.692815000000      23.631893000000
21    3       18.639715000000       6.468164000000      23.342028000000
22    1        5.060284000000       7.351666000000      22.627150000000
23    2        4.883067000000       6.507863000000      24.023026000000
24    3        4.525728000000       7.055111000000      24.883644000000
25    1        3.123899000000       1.935987000000      23.044689000000
26    2        2.892575000000       2.864185000000      24.367443000000
27    3        2.471336000000       2.328123000000      25.108545000000
28    1        8.041681000000       1.797322000000      22.953701000000
29    2        7.594697000000       2.690509000000      24.302105000000
30    3        6.675368000000       3.136917000000      24.392088000000
31    1        2.594127000000       9.364004000000      12.745254000000
32    2        2.865806000000      10.175973000000      11.324352000000
33    3        3.101855000000      11.094501000000      11.606819000000
34    1        7.543501000000       9.718215000000      12.675738000000
35    2        7.741409000000      11.086634000000      11.727201000000
36    3        6.931741000000      11.695069000000      11.848907000000
37    1        5.087996000000       0.178964000000      13.041551000000
38    2        5.544066000000      13.117105000000      12.184937000000
39    3        5.477775000000      13.198257000000      11.166019000000
40    1        5.674994000000       0.019511000000      23.270121000000
41    2        5.604491000000      13.633330000000      24.795107000000
42    3        6.473315000000      13.700926000000      25.244022000000
43    1        2.644970000000       9.321343000000      22.629431000000
44    2        2.415852000000      10.444905000000      23.894369000000
45    3        3.305117000000      10.710868000000      24.318653000000
46    1        0.396183000000       0.442186000000      22.766102000000
47    2       20.176825000000       0.134147000000      24.328049000000
48    3        0.489860000000      13.782908000000      24.737217000000
49    1        7.727160000000       8.972948000000      23.074295000000
50    2        7.175017000000       9.714091000000      24.486568000000
51    3        7.955136000000       9.853244000000      25.044123000000
52    1       10.513133000000      14.112722000000      23.268204000000
53    2       10.514757000000      13.272231000000      24.680031000000
54    3       11.125678000000      13.717875000000      25.437426000000
55    1       12.751887000000       2.070175000000      12.505872000000
56    2       12.942653000000       2.738751000000      11.017215000000
57    3       12.969234000000       2.202059000000      10.168973000000
58    1       15.017582000000       7.933773000000      12.720376000000
59    2       14.708081000000       6.905034000000      11.499263000000
60    3       13.849293000000       6.285171000000      11.303679000000
61    1       17.823111000000       1.878342000000      12.283562000000
62    2       18.313896000000       2.420483000000      10.787457000000
63    3       19.102913000000       2.965394000000      10.686785000000
64    1       10.292871000000       7.082522000000      23.241297000000
65    2       10.638012000000       6.438844000000      24.737885000000
66    3       11.422126000000       6.605050000000      25.389357000000
67    1       12.908248000000       1.597073000000      22.671949000000
68    2       12.503353000000       2.533845000000      23.963440000000
69    3       11.592723000000       2.506624000000      24.262657000000
70    1       18.214613000000       2.221393000000      22.075775000000
71    2       18.181637000000       3.596506000000      22.929909000000
72    3       18.889441000000       4.249795000000      22.743427000000
73    1       15.656905000000       7.692413000000      22.607262000000
74    2       16.563414000000       6.701212000000      23.665220000000
75    3       16.548679000000       7.099028000000      24.630754000000
76    1       12.580844000000       9.796293000000      12.871838000000
77    2       12.010896000000      10.869557000000      11.742530000000
78    3       11.285166000000      10.535045000000      11.199303000000
79    1       17.937832000000       9.336119000000      12.635314000000
80    2       17.870993000000      10.850780000000      11.891013000000
81    3       17.018543000000      11.274256000000      12.176523000000
82    1       15.354621000000       0.265244000000      12.807330000000
83    2       15.531968000000      13.176565000000      11.887368000000
84    3       15.365059000000      13.242047000000      10.917614000000
85    1       10.175218000000       0.380765000000      12.755906000000
86    2       10.724993000000      13.506886000000      11.679708000000
87    3       11.276550000000      12.759677000000      12.029252000000
88    1       15.713154000000       0.388453000000      22.875921000000
89    2       15.396544000000      14.190902000000      24.421551000000
90    3       15.022262000000      13.296968000000      24.567537000000
91    1       12.660111000000       9.110816000000      23.142923000000
92    2       12.148543000000       9.530670000000      24.670574000000
93    3       11.138172000000       9.868281000000      24.750134000000
94    1       17.955788000000       9.774156000000      22.558674000000
95    2       17.862099000000      10.321118000000      24.175451000000
96    3       17.046108000000      10.758558000000      24.493334000000
97    1       20.223148000000       5.838477000000      14.991052000000
98    1        2.617801000000       2.119091000000      17.710114000000
99    1        5.073486000000       5.619318000000      14.952077000000
100    1        2.481363000000       3.806659000000      15.143653000000
101    1        7.784140000000       4.132155000000      14.839311000000
102    1        0.100005000000       0.520090000000      17.757195000000
103    1        2.544152000000       3.655545000000      20.390261000000
104    1        0.215019000000       5.705111000000      20.194250000000
105    1        5.031553000000       5.385454000000      20.219774000000
106    1        7.481891000000       3.614416000000      20.249990000000
107    1        7.561105000000       2.227210000000      17.343693000000
108    1        5.219786000000      12.723348000000      15.553324000000
109    1        7.829876000000      11.108645000000      15.377339000000
110    1        0.074442000000      12.454639000000      15.753794000000
111    1        2.682325000000      10.907969000000      15.437146000000
112    1        7.782301000000       9.134112000000      17.961246000000
113    1        5.330516000000       0.250078000000      17.935757000000
114    1        0.208432000000       7.441206000000      17.675203000000
115    1        2.479732000000      11.182876000000      20.126337000000
116    1       20.224556000000      13.055405000000      20.170536000000
117    1        5.057251000000      12.860470000000      20.631233000000
118    1        7.417459000000      10.876745000000      20.496662000000
119    1        2.730600000000       9.008067000000      18.082703000000
120    1        5.243735000000       7.206311000000      17.773916000000
121    1       10.254765000000       5.957260000000      15.329116000000
122    1       15.162650000000       7.428737000000      17.767424000000
123    1       15.163619000000       5.823691000000      15.106035000000
124    1       17.635437000000       4.058542000000      14.638978000000
125    1       12.642275000000       3.962631000000      15.006969000000
126    1       12.548306000000       3.585817000000      20.323559000000
127    1       14.894341000000       5.688754000000      20.214926000000
128    1       17.641582000000       4.098829000000      19.791861000000
129    1       17.746695000000       2.425344000000      17.256332000000
130    1       10.002643000000       5.413914000000      20.806019000000
131    1       12.323798000000       2.133661000000      17.544428000000
132    1       15.163216000000       0.475278000000      17.818724000000
133    1       10.113436000000      13.102847000000      15.407280000000
134    1       12.857679000000      11.694362000000      15.152718000000
135    1       17.626680000000       8.966434000000      18.238802000000
136    1       17.841629000000      10.556480000000      15.530833000000
137    1       15.616569000000      12.877796000000      15.288306000000
138    1       10.471712000000       7.258581000000      18.399269000000
139    1       13.261683000000       9.779465000000      17.536804000000
140    1       12.758604000000      11.077663000000      20.465162000000
141    1        9.996292000000      12.584031000000      20.540121000000
142    1       15.010949000000      13.019775000000      20.421700000000
143    1       17.681995000000      11.443179000000      20.140240000000
144    1        9.785456000000       0.169351000000      18.143084000000
145    2        8.098190000000       3.289043000000      16.270807000000
146    2        8.274492000000       3.114946000000      13.601624000000
147    2        6.223893000000       1.414871000000      12.991288000000
148    2        1.571778000000       0.982869000000      17.135588000000
149    2        8.719397000000       5.464337000000      14.871987000000
150    2        0.377685000000       7.073421000000      16.083002000000
151    2        6.167968000000       4.333359000000      14.926903000000
152    2        0.980800000000       0.809254000000      12.643523000000
153    2        3.624234000000       0.684610000000      12.450583000000
154    2        2.427344000000       2.353322000000      14.332574000000
155    2        3.706244000000       4.775717000000      14.543247000000
156    2        2.735355000000       3.453174000000      16.779139000000
157    2        1.090868000000       4.638556000000      14.974773000000
158    2        5.189951000000       6.387734000000      16.357582000000
159    2        5.503058000000       6.433489000000      13.522808000000
160    2        8.801182000000       1.059153000000      12.136290000000
161    2        4.126007000000       1.419220000000      18.048128000000
162    2       20.048241000000       6.426182000000      13.458053000000
163    2        2.089930000000       2.541212000000      19.249371000000
164    2        1.356059000000       4.747456000000      20.835110000000
165    2        3.770391000000       4.530166000000      19.631929000000
166    2        3.190145000000       2.975944000000      21.741716000000
167    2        0.303702000000       7.115119000000      21.011467000000
168    2        4.670060000000       1.276390000000      23.252335000000
169    2        2.117489000000       0.663775000000      22.838701000000
170    2        4.532343000000       6.395814000000      21.409090000000
171    2        5.807300000000       6.201313000000      19.005266000000
172    2        6.944330000000       3.063514000000      18.713703000000
173    2        8.809789000000       4.605927000000      19.983707000000
174    2        6.190685000000       4.388849000000      20.812119000000
175    2        7.920416000000       2.539978000000      21.467434000000
176    2        7.213436000000       0.384076000000      22.724321000000
177    2        0.538003000000       6.012733000000      18.557678000000
178    2        9.658950000000       1.236449000000      23.263937000000
179    2        8.897998000000       1.524264000000      18.132214000000
180    2       10.239746000000       6.854010000000      19.921946000000
181    2        6.586661000000       0.879345000000      17.012604000000
182    2        7.179036000000      10.081328000000      14.224599000000
183    2       19.848284000000      13.539803000000      16.881857000000
184    2        4.867917000000      13.218657000000      17.057938000000
185    2       20.180275000000      13.080735000000      14.217946000000
186    2        3.957615000000       8.596951000000      13.204289000000
187    2        1.602942000000       8.087854000000      12.411339000000
188    2        1.662498000000      12.085252000000      15.893546000000
189    2        2.079964000000      10.359164000000      13.943296000000
190    2        4.237184000000      11.476290000000      15.167680000000
191    2        2.803896000000       9.584924000000      16.446159000000
192    2        9.057371000000       8.144184000000      17.913403000000
193    2        7.901441000000      10.412869000000      16.857918000000
194    2        6.852790000000      12.397511000000      15.478004000000
195    2        4.872536000000      14.042010000000      14.579638000000
196    2        9.382933000000      11.578692000000      14.974542000000
197    2        6.451547000000       8.605873000000      12.211765000000
198    2        9.017746000000       8.921193000000      12.567128000000
199    2        1.137186000000       8.656587000000      18.388985000000
200    2        3.207094000000      10.264762000000      18.943527000000
201    2        0.959769000000      11.771411000000      19.654791000000
202    2        3.382230000000      12.551834000000      20.516005000000
203    2        2.119380000000       9.998172000000      21.216793000000
204    2        0.398206000000       0.166453000000      19.353279000000
205    2        5.208627000000      13.234500000000      22.208654000000
206    2        5.519077000000      14.075866000000      19.521225000000
207    2        7.570383000000       9.578194000000      19.458090000000
208    2        8.505201000000      12.009610000000      20.057467000000
209    2        5.901032000000      11.451613000000      20.250671000000
210    2        7.956024000000      10.116362000000      21.928394000000
211    2        6.707130000000       7.807017000000      22.540665000000
212    2        4.196189000000       8.775747000000      22.637468000000
213    2        3.749807000000       7.763462000000      18.161335000000
214    2        1.568793000000       8.086751000000      23.108862000000
215    2        6.250266000000       8.483401000000      17.522976000000
216    2        9.092802000000       8.162996000000      23.560139000000
217    2        0.129947000000      13.376062000000      21.771864000000
218    2       11.252689000000       0.850484000000      17.705181000000
219    2       18.564381000000       0.382473000000      12.682858000000
220    2       18.789618000000       5.056709000000      15.294077000000
221    2       19.250843000000       1.790390000000      17.480526000000
222    2       18.223797000000       3.148295000000      13.363065000000
223    2       17.440563000000       3.006508000000      15.845682000000
224    2       11.310924000000       1.581485000000      13.058179000000
225    2       13.749767000000       0.800150000000      12.807994000000
226    2       10.524035000000       6.141249000000      16.965448000000
227    2       13.184030000000       3.326845000000      13.543744000000
228    2       12.052417000000       2.813169000000      16.056747000000
229    2       13.818671000000       4.950310000000      15.578716000000
230    2       11.357279000000       4.920527000000      14.686147000000
231    2       16.205175000000       1.610766000000      12.305594000000
232    2       14.717753000000       7.193497000000      14.253676000000
233    2       15.720825000000       6.420057000000      16.590502000000
234    2       16.166481000000       4.865787000000      14.293876000000
235    2       10.386724000000       7.316633000000      14.318932000000
236    2       12.331139000000       3.286471000000      18.693293000000
237    2       11.371753000000       4.634314000000      20.626240000000
238    2       13.948888000000       4.400695000000      20.734430000000
239    2       12.416897000000       2.163121000000      21.124735000000
240    2       14.537937000000       1.501621000000      22.502712000000
241    2       12.108995000000       0.123530000000      22.834545000000
242    2       14.955954000000       6.666883000000      21.556284000000
243    2       14.306811000000       6.546087000000      18.896200000000
244    2       17.551832000000       3.780428000000      18.234180000000
245    2       19.012074000000       4.842373000000      20.383833000000
246    2       16.456078000000       5.172999000000      20.278862000000
247    2       17.675318000000       2.560378000000      20.535185000000
248    2       19.802298000000       1.667430000000      22.015795000000
249    2       16.584772000000       1.163146000000      17.536745000000
250    2        9.735135000000       5.750731000000      22.378115000000
251    2       17.232922000000       1.156507000000      22.873787000000
252    2       13.842763000000       1.409410000000      17.488811000000
253    2       16.424772000000       8.008037000000      18.733353000000
254    2       16.628956000000       8.339484000000      12.471153000000
255    2        9.491567000000      13.400857000000      16.916025000000
256    2       19.333435000000       8.765658000000      12.011959000000
257    2       18.894508000000       7.930567000000      17.829828000000
258    2       14.211318000000       9.378860000000      12.755812000000
259    2       11.808988000000       8.382815000000      12.406248000000
260    2       12.928684000000      10.974037000000      16.611700000000
261    2       12.196895000000      10.534918000000      14.266635000000
262    2       14.295855000000      12.136114000000      14.578575000000
263    2       11.776391000000      12.894583000000      15.339613000000
264    2       15.864949000000      14.201664000000      14.324267000000
265    2        9.712644000000      14.275229000000      14.300374000000
266    2       17.096226000000       9.793733000000      16.792881000000
267    2       15.162872000000      13.446775000000      16.800087000000
268    2       16.952597000000      11.907290000000      15.117686000000
269    2       18.201729000000       9.414543000000      14.262033000000
270    2       19.318586000000      11.191637000000      15.869154000000
271    2       11.939707000000       8.442032000000      18.001104000000
272    2       13.463332000000      10.396081000000      19.093666000000
273    2       11.099506000000      11.361197000000      20.287592000000
274    2       13.473054000000      12.525678000000      20.730701000000
275    2       12.874907000000      10.249028000000      21.907495000000
276    2       14.286250000000       8.537715000000      23.408857000000
277    2       10.030864000000      12.933081000000      22.210833000000
278    2       11.584130000000       7.916587000000      22.520481000000
279    2       10.145956000000      14.022754000000      19.683823000000
280    2       14.927001000000      14.288236000000      19.418631000000
281    2       15.650846000000      13.413824000000      21.849951000000
282    2       18.178402000000      10.124753000000      19.248505000000
283    2       18.645336000000      12.756255000000      19.723703000000
284    2       16.059986000000      11.874552000000      19.808121000000
285    2       17.930738000000      11.187228000000      21.678432000000
286    2       19.435644000000       9.072675000000      22.408752000000
287    2       16.707155000000       8.846897000000      22.060337000000
288    2       14.457088000000       8.777921000000      17.195303000000
289    3       15.418906000000      11.800241000000      26.779268000000
290    3       14.420638000000      10.851109000000      26.028769000000
291    2       14.783295000000      11.791231000000      26.006878000000
292    3       19.277704000000      13.602331000000      27.692408000000
293    3        0.273813000000      12.848583000000      28.544033000000
294    2       19.752777000000      13.502521000000      28.574919000000
295    3       16.466059000000       7.167140000000      30.159288000000
296    3       17.119686000000       8.480530000000      29.330614000000
297    2       16.769932000000       8.133333000000      30.239973000000
298    3       12.895900000000      11.613605000000       3.110582000000
299    3       12.172681000000      11.428646000000       4.485530000000
300    2       12.168056000000      11.084484000000       3.540146000000
301    3        0.759006000000       2.761390000000      32.492203000000
302    3       19.926073000000       3.756132000000      32.992519000000
303    2        0.468859000000       3.198616000000      33.319839000000
304    3        5.415352000000      11.358409000000      28.665407000000
305    3        5.899036000000      11.171643000000      30.146093000000
306    2        6.201632000000      11.010334000000      29.214100000000
307    3       19.217556000000      13.894436000000      34.498936000000
308    3       17.828945000000      14.005986000000      33.956829000000
309    2       18.452398000000      13.295884000000      34.221870000000
310    3        0.793827000000       0.285475000000      33.623875000000
311    3       20.232685000000       1.508702000000      34.291016000000
312    2        0.280614000000       0.583662000000      34.394566000000
313    3       11.372029000000       6.587005000000      33.870422000000
314    3       10.094275000000       7.603503000000      34.119381000000
315    2       10.640275000000       6.853440000000      34.544472000000
316    3        2.513664000000      11.877804000000       7.702180000000
317    3        3.821056000000      11.993875000000       8.564583000000
318    2        3.462180000000      11.627939000000       7.710933000000
319    3        7.158482000000       8.426210000000       1.702710000000
320    3        5.758493000000       7.856994000000       2.223059000000
321    2        6.531573000000       7.661951000000       1.520862000000
322    3        6.699404000000       9.486306000000       6.360448000000
323    3        5.032480000000       8.827488000000       6.459082000000
324    2        5.940270000000       8.786870000000       5.989749000000
325    3       11.708973000000       8.683593000000       1.908493000000
326    3       11.606085000000       9.436471000000       3.303763000000
327    2       11.289358000000       8.655355000000       2.807845000000
328    3       14.086142000000       6.350750000000      27.172297000000
329    3       14.847520000000       5.034369000000      26.538712000000
330    2       14.952286000000       5.886648000000      27.113167000000
331    3       19.911789000000      11.480858000000       3.440458000000
332    3       18.726053000000      10.551841000000       3.317955000000
333    2       19.118187000000      11.299995000000       2.849138000000
334    3        0.043238000000      10.971151000000       1.533996000000
335    3        1.268170000000      11.624935000000       0.744445000000
336    2        0.965608000000      10.800711000000       1.230593000000
337    3       10.937340000000       3.366819000000      26.885918000000
338    3       11.823636000000       2.415168000000      27.821354000000
339    2       11.819583000000       3.340355000000      27.397451000000
340    3       18.665474000000      13.081634000000      30.050198000000
341    3       17.277447000000      13.126906000000      30.827768000000
342    2       17.915152000000      12.494991000000      30.386993000000
343    3        2.869707000000       6.342982000000      32.992855000000
344    3        2.307466000000       6.840443000000      31.647671000000
345    2        3.190541000000       6.876106000000      32.137962000000
346    3        7.285998000000       3.176229000000       5.942115000000
347    3        6.154276000000       3.790553000000       4.865555000000
348    2        7.021235000000       4.010381000000       5.407697000000
349    3       16.008520000000       0.030079000000       8.765350000000
350    3       15.210613000000      13.204913000000       8.043751000000
351    2       15.217095000000      13.776442000000       8.824114000000
352    3        3.212788000000       8.506107000000       8.143906000000
353    3        3.634890000000      10.067452000000       7.735965000000
354    2        3.561986000000       9.054428000000       7.416718000000
355    3        1.483237000000      10.804180000000       4.826514000000
356    3        1.537479000000      12.122790000000       3.912478000000
357    2        0.945728000000      11.659170000000       4.532772000000
358    3        5.183260000000       2.488292000000      27.579365000000
359    3        5.481815000000       3.623673000000      26.587570000000
360    2        5.552015000000       3.394449000000      27.575621000000
361    3       19.410538000000       5.438179000000      27.464367000000
362    3       19.867451000000       6.248624000000      28.773191000000
363    2       19.679634000000       6.315318000000      27.775763000000
364    3       19.501165000000       4.901817000000       7.471600000000
365    3       19.725546000000       3.323104000000       7.259402000000
366    2       20.109468000000       4.156676000000       7.697811000000
367    3       15.285996000000       5.521196000000      28.747614000000
368    3       16.184626000000       4.956134000000      30.015316000000
369    2       15.492885000000       5.663674000000      29.769930000000
370    3       14.908402000000      11.719698000000       6.039731000000
371    3       13.751122000000      12.688284000000       6.225378000000
372    2       14.711700000000      12.662345000000       6.187045000000
373    3        4.593816000000       0.680812000000      34.299938000000
374    3        4.991836000000      13.489427000000      34.397240000000
375    2        4.259761000000      14.113818000000      34.499680000000
376    3       13.988597000000      13.768517000000      29.854347000000
377    3       12.943945000000       0.688174000000      30.041718000000
378    2       13.891959000000       0.443787000000      29.770889000000
379    3       16.987448000000       5.990270000000       6.548734000000
380    3       15.748460000000       4.935349000000       6.762135000000
381    2       16.010075000000       5.889822000000       6.540836000000
382    3       18.754665000000      11.662384000000      33.753033000000
383    3       18.571985000000      11.059645000000      32.302799000000
384    2       18.590481000000      10.783928000000      33.277161000000
385    3       16.358213000000       4.316736000000      34.756031000000
386    3       16.258402000000       5.827885000000      34.478207000000
387    2       16.104406000000       4.944862000000      34.045166000000
388    3       16.221079000000      12.018870000000       1.572423000000
389    3       14.996243000000      12.101729000000       2.532069000000
390    2       15.403900000000      11.513286000000       1.814419000000
391    3        5.134762000000      11.133025000000      32.872349000000
392    3        5.495105000000       9.770438000000      32.026794000000
393    2        5.169208000000      10.749582000000      31.943624000000
394    3       10.738910000000      13.115685000000       8.489574000000
395    3       11.815928000000      12.306715000000       9.159443000000
396    2       11.198870000000      12.252199000000       8.407901000000
397    3        2.752029000000       4.944937000000       6.406153000000
398    3        1.558335000000       4.813308000000       7.389545000000
399    2        2.476054000000       5.261956000000       7.299670000000
400    3       17.445229000000       9.192021000000       4.339746000000
401    3       18.365471000000       9.229347000000       5.662740000000
402    2       18.392063000000       9.185852000000       4.685468000000
403    3       14.503413000000      11.983884000000      34.516644000000
404    3       14.311731000000      11.909118000000       0.297283000000
405    2       13.819654000000      12.170518000000      35.193035000000
406    3        0.280644000000       6.426859000000       0.392017000000
407    3        1.303297000000       7.609038000000       0.031515000000