# File generated with Atomsk by j281j388 on 2026-06-02 11:09:01

864  atoms
3  atom types

0.000000000000      20.251000000000  xlo xhi
0.000000000000      14.320000000000  ylo yhi
0.000000000000      35.707675000000  zlo zhi

Masses

1   28.08500000             # Si
2   15.99900000             # O
3   1.00800000              # H

Atoms # atomic

1    1        2.277115000000       1.734136000000      12.643834000000
2    2        2.233826000000       2.893071000000      11.445090000000
3    3        1.448675000000       3.412563000000      11.125093000000
4    1       10.261524000000       7.752617000000      12.857330000000
5    2        9.990328000000       6.412800000000      11.878987000000
6    3       10.917815000000       5.978773000000      11.639863000000
7    1        0.168899000000       7.423153000000      12.369002000000
8    2        0.180647000000       6.593462000000      10.896427000000
9    3        1.010329000000       6.771388000000      10.361415000000
10    1        5.336479000000       7.790387000000      12.669922000000
11    2        4.730562000000       7.129333000000      11.271499000000
12    3        5.475507000000       6.513409000000      10.943406000000
13    1        7.708835000000       1.936871000000      12.483582000000
14    2        7.325346000000       2.794151000000      11.155465000000
15    3        6.305641000000       2.919986000000      11.007614000000
16    1       19.991104000000      13.986385000000      12.750362000000
17    2       19.677563000000      12.966945000000      11.380943000000
18    3       19.315153000000      12.126511000000      11.661564000000
19    1       20.201466000000       7.594380000000      22.462254000000
20    2       19.465008000000       6.449520000000      23.435907000000
21    3       18.470299000000       6.385614000000      23.304224000000
22    1        4.982125000000       7.546125000000      22.755074000000
23    2        4.944258000000       6.934627000000      24.296064000000
24    3        4.324548000000       7.310818000000      25.010132000000
25    1        3.128394000000       1.814751000000      23.030163000000
26    2        2.678125000000       2.769351000000      24.318119000000
27    3        2.785474000000       2.384288000000      25.239462000000
28    1        8.103507000000       1.996086000000      22.693001000000
29    2        7.531256000000       2.784167000000      24.031662000000
30    3        6.646714000000       3.298304000000      23.955309000000
31    1        2.727380000000       9.318640000000      12.558406000000
32    2        2.893327000000       9.931428000000      10.988507000000
33    3        2.954362000000      10.919886000000      11.185027000000
34    1        7.741114000000       9.857346000000      12.890986000000
35    2        7.649553000000      11.083162000000      11.780751000000
36    3        7.280022000000      11.941932000000      12.153270000000
37    1        5.034697000000       0.188362000000      12.979620000000
38    2        5.333560000000      13.042092000000      12.263604000000
39    3        5.460615000000      13.071861000000      11.249263000000
40    1        5.841341000000       0.105719000000      23.064093000000
41    2        5.762616000000      13.902523000000      24.669001000000
42    3        6.527552000000      14.001575000000      25.283293000000
43    1        2.445189000000       9.383588000000      22.564360000000
44    2        2.304521000000      10.501417000000      23.755562000000
45    3        3.208087000000      10.872530000000      24.095282000000
46    1        0.401489000000       0.251781000000      22.711544000000
47    2        0.088201000000      14.176528000000      24.255169000000
48    3        0.230058000000      13.219028000000      24.598625000000
49    1        7.561567000000       9.108358000000      22.948576000000
50    2        7.398359000000       9.461770000000      24.506834000000
51    3        8.062718000000      10.114868000000      24.756945000000
52    1       10.478266000000      14.261410000000      23.275473000000
53    2       10.490674000000      13.479103000000      24.827705000000
54    3       11.075907000000      14.118888000000      25.497377000000
55    1       12.815758000000       2.069892000000      12.593950000000
56    2       12.703547000000       2.793733000000      11.073147000000
57    3       12.968967000000       2.130812000000      10.324017000000
58    1       15.131776000000       7.737782000000      12.836673000000
59    2       14.784503000000       6.891147000000      11.405925000000
60    3       14.043641000000       6.234760000000      11.522552000000
61    1       17.968821000000       1.916407000000      12.443551000000
62    2       18.615463000000       2.076397000000      10.937362000000
63    3       19.231451000000       2.924610000000      10.935499000000
64    1       10.242357000000       7.194031000000      22.855604000000
65    2       10.093513000000       6.553735000000      24.451355000000
66    3       10.972175000000       6.519601000000      24.951105000000
67    1       12.860324000000       1.842455000000      22.631956000000
68    2       12.605058000000       2.779092000000      23.993696000000
69    3       11.910751000000       2.329387000000      24.558414000000
70    1       18.169853000000       2.236589000000      22.464127000000
71    2       18.295036000000       3.652977000000      23.348585000000
72    3       19.238136000000       3.877238000000      23.342600000000
73    1       15.584027000000       7.972884000000      22.781914000000
74    2       16.629881000000       7.245561000000      23.806650000000
75    3       16.448183000000       7.331938000000      24.800440000000
76    1       12.733225000000       9.680754000000      12.870323000000
77    2       12.242045000000      10.923669000000      11.806889000000
78    3       11.656021000000      10.584947000000      11.116202000000
79    1       17.868805000000       9.232285000000      12.806346000000
80    2       17.615208000000      10.575952000000      11.792618000000
81    3       16.748236000000      11.003000000000      11.945586000000
82    1       15.418854000000       0.226214000000      12.695589000000
83    2       15.618423000000      13.237041000000      11.612679000000
84    3       15.404644000000      13.471073000000      10.633730000000
85    1       10.212394000000       0.261779000000      12.956499000000
86    2       10.738171000000      13.392880000000      11.883848000000
87    3       11.374058000000      12.654977000000      12.159513000000
88    1       15.606447000000       0.414380000000      22.863398000000
89    2       15.164192000000      13.968237000000      24.310240000000
90    3       15.461100000000      13.030322000000      24.316025000000
91    1       12.655423000000       9.054644000000      23.226280000000
92    2       12.100175000000       9.526007000000      24.689325000000
93    3       11.091647000000       9.786067000000      24.745539000000
94    1       17.909519000000       9.825307000000      22.602995000000
95    2       17.849224000000      10.400053000000      24.206686000000
96    3       17.430569000000       9.605684000000      24.726986000000
97    1        0.061885000000       5.661623000000      14.929369000000
98    1        2.727823000000       2.255806000000      17.653183000000
99    1        5.262466000000       5.463772000000      14.882286000000
100    1        2.640964000000       3.792390000000      15.030877000000
101    1        7.682424000000       3.560767000000      15.187411000000
102    1        0.227595000000       0.666398000000      17.535780000000
103    1        2.753689000000       3.683220000000      20.384336000000
104    1        0.184313000000       5.570179000000      20.160807000000
105    1        5.120680000000       5.557695000000      20.301695000000
106    1        7.489563000000       3.754614000000      20.253738000000
107    1        6.860460000000       1.884820000000      18.000755000000
108    1        5.096433000000      12.880776000000      15.382464000000
109    1        7.750193000000      11.429749000000      15.558492000000
110    1        0.255890000000      12.529775000000      15.547793000000
111    1        2.838386000000      11.011444000000      14.925479000000
112    1        7.511911000000       9.417732000000      17.832426000000
113    1        4.770907000000      14.229851000000      18.042923000000
114    1        0.284115000000       7.380808000000      17.628620000000
115    1        2.271194000000      11.003481000000      19.853434000000
116    1       20.190336000000      13.118788000000      19.961376000000
117    1        4.865149000000      12.614880000000      20.682934000000
118    1        7.424617000000      10.968758000000      20.424097000000
119    1        2.812693000000       9.217777000000      17.240625000000
120    1        5.191206000000       7.255777000000      17.549246000000
121    1       10.125802000000       5.730906000000      15.127517000000
122    1       15.510573000000       6.998121000000      17.983379000000
123    1       15.351533000000       5.670253000000      15.240284000000
124    1       17.770382000000       3.977215000000      14.714279000000
125    1       12.751626000000       3.995017000000      15.014260000000
126    1       12.619936000000       3.852037000000      20.236158000000
127    1       14.961680000000       5.645370000000      20.577383000000
128    1       17.650492000000       3.948807000000      19.986258000000
129    1       17.822630000000       2.374382000000      17.302168000000
130    1        9.931264000000       5.728853000000      20.048971000000
131    1       13.104791000000       2.431627000000      17.538927000000
132    1       15.424307000000       0.483749000000      17.834051000000
133    1       10.339203000000      13.089405000000      15.699838000000
134    1       13.007860000000      11.230580000000      15.590129000000
135    1       17.798595000000       8.936379000000      18.268576000000
136    1       17.954191000000      10.748921000000      15.710093000000
137    1       15.664411000000      12.813905000000      15.394315000000
138    1        9.958284000000       7.515202000000      17.485781000000
139    1       13.310880000000       9.129648000000      18.056490000000
140    1       12.706580000000      10.937995000000      20.695082000000
141    1       10.052522000000      12.644666000000      20.603460000000
142    1       15.057598000000      13.084393000000      20.367130000000
143    1       17.648108000000      11.449766000000      20.128746000000
144    1       10.139744000000       0.632974000000      18.375557000000
145    2        7.327436000000       2.807399000000      16.696308000000
146    2        8.300805000000       2.575591000000      13.965161000000
147    2        6.286732000000       1.211182000000      12.960785000000
148    2        1.753577000000       1.039703000000      17.066513000000
149    2        8.808911000000       4.800553000000      15.304360000000
150    2        0.363764000000       6.839911000000      16.001736000000
151    2        6.222040000000       4.105802000000      14.739635000000
152    2        1.058520000000       0.692481000000      12.612402000000
153    2        3.717613000000       0.898129000000      12.283655000000
154    2        2.438049000000       2.352001000000      14.173536000000
155    2        3.782086000000       4.773630000000      14.465358000000
156    2        2.873085000000       3.520685000000      16.632751000000
157    2        1.307814000000       4.647016000000      14.651979000000
158    2        5.458722000000       6.139325000000      16.358578000000
159    2        5.747806000000       6.557217000000      13.763209000000
160    2        8.872013000000       0.882636000000      12.187953000000
161    2        4.120193000000       1.441683000000      17.943670000000
162    2       19.936598000000       6.352621000000      13.518826000000
163    2        2.181358000000       2.810697000000      19.116783000000
164    2        1.426813000000       4.590058000000      20.915438000000
165    2        3.889157000000       4.636934000000      19.732183000000
166    2        3.368862000000       3.031537000000      21.808424000000
167    2        0.079791000000       7.068511000000      20.890759000000
168    2        4.720894000000       1.390957000000      23.174187000000
169    2        2.108413000000       0.518570000000      22.571703000000
170    2        4.542310000000       6.433856000000      21.605520000000
171    2        5.611846000000       6.530811000000      19.043037000000
172    2        6.443067000000       2.918641000000      19.177591000000
173    2        8.633011000000       4.775163000000      19.524296000000
174    2        6.339391000000       4.681474000000      20.955624000000
175    2        8.384613000000       2.911508000000      21.391899000000
176    2        7.170004000000       0.620561000000      22.412886000000
177    2        0.558141000000       6.051777000000      18.617785000000
178    2        9.573966000000       1.331012000000      23.245579000000
179    2        8.577293000000       1.376899000000      18.639349000000
180    2        9.651527000000       7.174376000000      19.153564000000
181    2        6.370518000000       0.324937000000      17.607128000000
182    2        7.358544000000      10.285325000000      14.419881000000
183    2       20.115555000000      13.694498000000      16.609348000000
184    2        4.450361000000      13.012438000000      16.966728000000
185    2       20.206146000000      12.822724000000      13.930911000000
186    2        4.074071000000       8.677866000000      13.222254000000
187    2        1.702652000000       8.061031000000      12.532737000000
188    2        1.854530000000      12.068107000000      15.763413000000
189    2        2.263424000000      10.663482000000      13.451411000000
190    2        4.377134000000      11.529531000000      14.821589000000
191    2        3.020617000000       9.592300000000      15.708842000000
192    2        8.867696000000       8.651644000000      17.072968000000
193    2        7.451666000000      10.877495000000      17.072058000000
194    2        6.758033000000      12.728530000000      15.290589000000
195    2        4.665705000000      14.315561000000      14.578868000000
196    2        9.433928000000      11.660077000000      15.244091000000
197    2        6.671008000000       8.612567000000      12.435071000000
198    2        9.181437000000       9.009244000000      12.787796000000
199    2        1.365902000000       8.608895000000      17.672821000000
200    2        2.975326000000      10.479267000000      18.370771000000
201    2        0.933872000000      11.868372000000      19.429602000000
202    2        3.304265000000      12.044018000000      20.724567000000
203    2        1.900953000000       9.828925000000      21.074371000000
204    2        0.250046000000       0.179177000000      19.082701000000
205    2        5.263658000000      13.105714000000      22.154734000000
206    2        4.783460000000      13.946204000000      19.700844000000
207    2        7.641213000000       9.644701000000      19.430496000000
208    2        8.588099000000      12.085210000000      20.117239000000
209    2        5.911773000000      11.546996000000      19.959444000000
210    2        7.514667000000      10.441414000000      21.975935000000
211    2        6.552742000000       7.963696000000      22.410503000000
212    2        4.008476000000       8.851512000000      22.379446000000
213    2        3.636541000000       7.780045000000      17.503189000000
214    2        1.383832000000       8.158659000000      22.903090000000
215    2        6.111037000000       8.585287000000      17.447933000000
216    2        9.099264000000       8.448177000000      22.674248000000
217    2       20.203506000000      13.344315000000      21.618313000000
218    2       11.423326000000       1.697843000000      18.101812000000
219    2       18.695599000000       0.581900000000      13.166907000000
220    2       18.917313000000       4.877865000000      15.488590000000
221    2       19.433985000000       1.954277000000      17.103981000000
222    2       18.410423000000       3.204118000000      13.420392000000
223    2       17.300674000000       2.891284000000      15.854007000000
224    2       11.269176000000       1.510505000000      12.986757000000
225    2       13.840034000000       0.746328000000      12.599930000000
226    2       10.258160000000       6.141324000000      16.695263000000
227    2       13.340472000000       3.217308000000      13.654078000000
228    2       12.346957000000       2.939622000000      16.166510000000
229    2       14.096711000000       4.740148000000      15.724508000000
230    2       11.462666000000       4.921113000000      14.530017000000
231    2       16.368500000000       1.573333000000      12.375924000000
232    2       14.847354000000       6.997108000000      14.352554000000
233    2       15.986690000000       6.048023000000      16.721224000000
234    2       16.453728000000       4.808285000000      14.201511000000
235    2       10.014185000000       7.208164000000      14.404084000000
236    2       13.458577000000       3.455540000000      18.830122000000
237    2       11.276363000000       4.758874000000      19.911366000000
238    2       13.707245000000       4.708544000000      21.072695000000
239    2       12.336744000000       2.553863000000      21.236851000000
240    2       14.498300000000       1.664853000000      22.516054000000
241    2       12.117390000000       0.325480000000      22.888668000000
242    2       15.090887000000       6.975539000000      21.542482000000
243    2       14.607290000000       6.176852000000      19.097433000000
244    2       17.677925000000       3.595831000000      18.383846000000
245    2       19.005964000000       4.810768000000      20.387403000000
246    2       16.376799000000       4.874212000000      20.452547000000
247    2       17.624060000000       2.571908000000      20.916594000000
248    2       19.817776000000       1.676706000000      22.405447000000
249    2       16.918915000000       1.108851000000      17.916000000000
250    2        9.955806000000       6.059715000000      21.691998000000
251    2       17.053192000000       1.233102000000      23.155169000000
252    2       14.382031000000       1.637997000000      17.085783000000
253    2       16.869621000000       7.646303000000      18.653654000000
254    2       16.743631000000       8.047581000000      12.584908000000
255    2       10.083568000000      13.912067000000      17.132193000000
256    2       19.357103000000       8.670319000000      12.395362000000
257    2       19.160416000000       8.146544000000      17.865387000000
258    2       14.317975000000       9.180171000000      12.856617000000
259    2       11.805933000000       8.316939000000      12.468760000000
260    2       13.332664000000      10.497722000000      16.966888000000
261    2       12.378771000000      10.354799000000      14.342673000000
262    2       14.485306000000      11.839216000000      14.819216000000
263    2       11.899004000000      12.576047000000      15.724474000000
264    2       15.770307000000      14.075201000000      14.289388000000
265    2        9.892822000000      14.078833000000      14.447640000000
266    2       17.163891000000       9.823506000000      16.922733000000
267    2       15.233144000000      13.446289000000      16.902142000000
268    2       17.160038000000      12.201604000000      15.566746000000
269    2       17.872059000000       9.724781000000      14.382110000000
270    2       19.505747000000      11.312013000000      15.958411000000
271    2       11.783338000000       8.217505000000      17.807537000000
272    2       13.215968000000       9.847754000000      19.499521000000
273    2       11.112021000000      11.414918000000      20.350382000000
274    2       13.590073000000      12.362391000000      20.613285000000
275    2       12.850607000000      10.363102000000      22.232691000000
276    2       14.208961000000       8.453194000000      23.588299000000
277    2        9.918757000000      12.994669000000      22.253914000000
278    2       11.720235000000       7.781514000000      22.523651000000
279    2       10.461278000000      13.989308000000      19.796774000000
280    2       14.943204000000       0.057614000000      19.364981000000
281    2       15.698572000000      13.512512000000      21.789747000000
282    2       17.939207000000      10.016310000000      19.519068000000
283    2       18.633436000000      12.655804000000      19.503410000000
284    2       16.088596000000      11.949244000000      19.798889000000
285    2       18.041723000000      11.164936000000      21.757528000000
286    2       19.173880000000       8.941017000000      22.219450000000
287    2       16.429356000000       9.207396000000      22.151335000000
288    2       14.552089000000       8.300550000000      17.513933000000
289    3       15.100226000000      11.829301000000      27.253733000000
290    3       14.254279000000      10.777358000000      26.629623000000
291    2       14.305539000000      11.819234000000      26.634846000000
292    3       19.450567000000      12.968314000000      28.023077000000
293    3        0.484916000000      12.604504000000      28.908937000000
294    2       19.927753000000      13.191359000000      28.873690000000
295    3       16.371675000000       7.129024000000      29.760868000000
296    3       17.393675000000       8.228868000000      29.147486000000
297    2       16.973448000000       7.863334000000      29.989420000000
298    3       12.371696000000      12.125997000000       3.623738000000
299    3       11.144405000000      11.622173000000       4.463619000000
300    2       11.474731000000      11.631167000000       3.540872000000
301    3        0.664007000000       2.946222000000      32.092873000000
302    3       19.572243000000       3.647118000000      32.744370000000
303    2        0.105930000000       3.058196000000      32.921062000000
304    3        5.286757000000      11.104920000000      28.842625000000
305    3        5.812369000000      10.330292000000      30.153891000000
306    2        6.040878000000      10.561133000000      29.202044000000
307    3       19.164339000000      14.030724000000      34.655106000000
308    3       17.529015000000      14.096840000000      34.436840000000
309    2       18.284384000000      13.482669000000      34.545803000000
310    3        0.721159000000       0.499856000000      33.583946000000
311    3       20.127834000000       1.651550000000      33.968815000000
312    2        0.170497000000       0.780759000000      34.357952000000
313    3       11.195122000000       6.774395000000      33.847767000000
314    3        9.871183000000       7.698135000000      34.208019000000
315    2       10.529380000000       6.985237000000      34.555901000000
316    3        2.409734000000      12.705853000000       7.595690000000
317    3        3.893278000000      12.721352000000       8.382256000000
318    2        3.330317000000      12.280545000000       7.684254000000
319    3        7.378210000000       8.151447000000       1.667099000000
320    3        6.065308000000       7.957844000000       2.629344000000
321    2        6.503984000000       7.674205000000       1.792899000000
322    3        6.022525000000       8.838202000000       6.566463000000
323    3        4.525275000000       8.824438000000       6.985795000000
324    2        5.253558000000       8.287074000000       6.456894000000
325    3       11.828332000000       8.749020000000       1.843702000000
326    3       11.359014000000       9.911521000000       2.902342000000
327    2       11.292384000000       8.971919000000       2.706854000000
328    3       13.799703000000       6.219336000000      27.018906000000
329    3       14.613292000000       4.925138000000      26.827501000000
330    2       14.696147000000       5.795148000000      27.247547000000
331    3       20.105692000000      11.746739000000       3.235835000000
332    3       19.027531000000      10.514218000000       3.367647000000
333    2       19.337717000000      11.307476000000       2.761277000000
334    3        0.353538000000      11.029363000000       1.570800000000
335    3        1.543136000000      11.649598000000       0.860638000000
336    2        1.173219000000      10.782858000000       1.132717000000
337    3       11.087646000000       3.663001000000      26.878851000000
338    3       11.940903000000       3.311548000000      28.152952000000
339    2       12.021934000000       3.737566000000      27.233454000000
340    3       18.408297000000      13.418266000000      30.039368000000
341    3       17.110130000000      13.970071000000      30.714556000000
342    2       17.590260000000      13.124516000000      30.429480000000
343    3        2.464470000000       6.036317000000      32.800510000000
344    3        1.845624000000       6.758662000000      31.417959000000
345    2        2.562536000000       6.884753000000      32.123661000000
346    3        7.291208000000       3.223740000000       5.622937000000
347    3        6.244586000000       3.987080000000       4.732367000000
348    2        7.195245000000       4.075645000000       5.088363000000
349    3       16.151087000000      14.218051000000       8.539751000000
350    3       15.031552000000      13.307710000000       8.017915000000
351    2       15.505342000000      13.580817000000       8.875735000000
352    3        2.479388000000       9.167481000000       8.289666000000
353    3        3.086153000000      10.559458000000       7.826045000000
354    2        3.062368000000       9.629340000000       7.627370000000
355    3        1.535542000000      10.931472000000       4.765187000000
356    3        1.938406000000      12.299537000000       4.084836000000
357    2        1.184977000000      11.829689000000       4.510525000000
358    3        5.687571000000       2.102351000000      27.657701000000
359    3        5.514721000000       3.505553000000      26.780352000000
360    2        5.676697000000       3.142861000000      27.718246000000
361    3       19.542757000000       4.821057000000      27.972517000000
362    3       20.195557000000       6.069451000000      28.699659000000
363    2       19.534599000000       5.826575000000      28.026997000000
364    3       19.735895000000       4.701437000000       7.311402000000
365    3       20.171949000000       3.297853000000       7.037525000000
366    2        0.199320000000       4.048929000000       7.613624000000
367    3       15.048612000000       5.384603000000      28.970650000000
368    3       16.097633000000       4.728775000000      29.861576000000
369    2       15.331288000000       5.380083000000      29.929138000000
370    3       14.655299000000      11.517374000000       6.124711000000
371    3       13.453787000000      12.482033000000       6.066420000000
372    2       14.480480000000      12.521140000000       6.038898000000
373    3        4.505843000000       0.376938000000      34.429932000000
374    3        4.582405000000      13.208622000000      34.584152000000
375    2        3.920034000000      13.914156000000      34.443405000000
376    3       14.027160000000      13.802354000000      29.958149000000
377    3       13.181599000000       0.843880000000      29.738680000000
378    2       14.108453000000       0.433750000000      29.560490000000
379    3       17.485912000000       6.103363000000       6.635283000000
380    3       16.333899000000       5.035105000000       6.649868000000
381    2       16.505470000000       5.968918000000       6.518934000000
382    3       18.081396000000      12.182388000000      33.574856000000
383    3       17.858744000000      11.920058000000      32.044479000000
384    2       17.891672000000      11.425614000000      32.914661000000
385    3       16.916451000000       4.505424000000      34.742706000000
386    3       16.383739000000       5.840792000000      34.325554000000
387    2       16.411173000000       4.888951000000      33.970482000000
388    3       16.027891000000      11.731148000000       1.284250000000
389    3       14.719835000000      11.944033000000       2.142592000000
390    2       15.162714000000      11.299381000000       1.552317000000
391    3        5.487521000000      10.862007000000      32.560871000000
392    3        5.007616000000       9.476635000000      32.253323000000
393    2        5.190976000000      10.311631000000      31.743206000000
394    3       11.106529000000      13.108696000000       8.794032000000
395    3       12.420285000000      12.513931000000       9.350307000000
396    2       11.700288000000      12.314983000000       8.724877000000
397    3        2.818254000000       5.367590000000       6.340523000000
398    3        1.829549000000       4.587828000000       7.505171000000
399    2        2.642625000000       5.203484000000       7.338269000000
400    3       17.382526000000       9.225205000000       4.058578000000
401    3       18.502617000000       9.355716000000       5.248940000000
402    2       18.383907000000       9.227295000000       4.255388000000
403    3       14.300778000000      11.569622000000      34.097897000000
404    3       14.145188000000      11.497561000000       0.018437000000
405    2       13.688102000000      11.883759000000      34.894638000000
406    3        0.074989000000       6.414307000000      35.612461000000
407    3        1.247243000000       7.362122000000      35.425793000000