# File generated with Atomsk by j281j388 on 2026-06-04 11:47:51

864  atoms
3  atom types

0.000000000000      20.251000000000  xlo xhi
0.000000000000      14.320000000000  ylo yhi
0.000000000000      35.707675000000  zlo zhi

Masses

1   28.08500000             # Si
2   15.99900000             # O
3   1.00800000              # H

Atoms # atomic

1    1        2.566353000000       2.450759000000      13.185466000000
2    2        2.659134000000       3.743379000000      12.112816000000
3    3        1.851390000000       4.122084000000      11.678591000000
4    1        9.976153000000       7.664279000000      12.775486000000
5    2       10.085064000000       7.104789000000      11.230700000000
6    3       10.964604000000       6.827923000000      10.854447000000
7    1        0.526664000000       8.214057000000      12.246078000000
8    2        0.585897000000       7.264616000000      10.887300000000
9    3        1.529900000000       7.073471000000      10.601783000000
10    1        5.490869000000       7.425361000000      13.200227000000
11    2        5.530563000000       6.070990000000      12.271254000000
12    3        6.180711000000       6.211681000000      11.538475000000
13    1        7.519874000000       2.221071000000      14.553112000000
14    2        7.380970000000       3.616333000000      13.674344000000
15    3        6.708077000000       3.605322000000      12.923365000000
16    1        0.166078000000       0.598554000000      13.657490000000
17    2        0.009599000000      13.708425000000      12.593038000000
18    3       19.606544000000      13.012543000000      12.792686000000
19    1        0.003128000000       8.065816000000      22.605707000000
20    2       19.463905000000       7.098293000000      23.756491000000
21    3       18.773855000000       6.523808000000      23.305456000000
22    1        5.680096000000       7.923413000000      23.316786000000
23    2        6.201118000000       7.385115000000      24.823223000000
24    3        5.403604000000       7.680892000000      25.402763000000
25    1        2.314375000000       2.178031000000      23.542994000000
26    2        2.781900000000       2.755820000000      25.018261000000
27    3        2.908952000000       1.958907000000      25.755878000000
28    1        7.523896000000       2.108054000000      23.376598000000
29    2        7.627651000000       2.023886000000      25.047802000000
30    3        6.806007000000       1.548010000000      25.371340000000
31    1        3.158433000000       9.645777000000      13.190096000000
32    2        3.847967000000      10.954796000000      12.431419000000
33    3        4.141882000000      11.813781000000      12.833032000000
34    1        7.591215000000       9.682590000000      12.795913000000
35    2        7.684892000000      10.837961000000      11.574674000000
36    3        6.973355000000      10.676618000000      10.864560000000
37    1        4.847482000000       0.524017000000      13.672669000000
38    2        4.963089000000      13.510053000000      12.666301000000
39    3        4.796295000000      13.553963000000      11.699362000000
40    1        4.955788000000       0.407459000000      23.217329000000
41    2        5.169938000000      14.188375000000      24.773344000000
42    3        5.597895000000      13.285387000000      24.882084000000
43    1        2.746062000000       9.243608000000      23.671293000000
44    2        2.824670000000       9.898920000000      25.215134000000
45    3        3.075195000000       9.326362000000      25.989151000000
46    1       19.874487000000       0.519435000000      23.675480000000
47    2       19.934452000000      13.841185000000      24.989819000000
48    3        0.113542000000      12.880962000000      24.803640000000
49    1        8.423431000000       9.492729000000      22.951862000000
50    2        8.303632000000      10.129647000000      24.469616000000
51    3        9.192924000000      10.488636000000      24.730904000000
52    1       10.193268000000       0.430601000000      22.592623000000
53    2       10.700786000000      13.985430000000      24.042549000000
54    3       10.511502000000       0.080697000000      24.887465000000
55    1       12.411604000000       2.114396000000      11.516845000000
56    2       12.210164000000       1.898781000000       9.848183000000
57    3       12.957611000000       1.566553000000       9.325348000000
58    1       15.330824000000       8.204601000000      12.311064000000
59    2       15.120746000000       7.403720000000      10.918111000000
60    3       14.180111000000       7.145564000000      10.711170000000
61    1       17.876366000000       2.119089000000      12.894704000000
62    2       18.394497000000       2.393276000000      11.346706000000
63    3       19.114315000000       3.149927000000      11.215932000000
64    1       11.176279000000       7.989536000000      22.242416000000
65    2       11.853763000000       6.796755000000      23.236515000000
66    3       11.592605000000       6.738044000000      24.184633000000
67    1       12.331198000000       2.712034000000      21.522530000000
68    2       12.002159000000       4.028402000000      22.468157000000
69    3       12.112548000000       4.969995000000      22.208313000000
70    1       17.488033000000       2.371820000000      22.850956000000
71    2       17.577808000000       3.833285000000      23.629612000000
72    3       17.012409000000       4.576450000000      23.257372000000
73    1       15.985658000000       7.801272000000      22.344376000000
74    2       16.428152000000       6.686155000000      23.382692000000
75    3       15.986916000000       6.920884000000      24.263151000000
76    1       12.542325000000       9.336733000000      13.686418000000
77    2       11.828064000000      10.626025000000      12.902324000000
78    3       12.428139000000      11.387617000000      12.722957000000
79    1       17.998144000000       9.976079000000      12.303863000000
80    2       18.090454000000      11.428576000000      11.627934000000
81    3       18.318687000000      11.727051000000      10.664040000000
82    1       15.202292000000       0.361100000000      12.072132000000
83    2       15.704480000000      13.965431000000      10.671092000000
84    3       16.325985000000      13.224805000000      10.862526000000
85    1        9.859946000000       0.798364000000      13.037016000000
86    2        9.052960000000       0.405952000000      11.669012000000
87    3        8.410533000000      14.010373000000      11.952944000000
88    1       14.907342000000       0.913102000000      22.114923000000
89    2       14.781929000000      13.916095000000      23.119572000000
90    3       14.573547000000      13.053601000000      22.669600000000
91    1       13.506910000000       9.817349000000      22.902882000000
92    2       13.236426000000      10.321935000000      24.425781000000
93    3       12.266424000000      10.605015000000      24.671743000000
94    1       18.013809000000      10.059898000000      22.462143000000
95    2       17.457054000000      10.475329000000      23.981604000000
96    3       18.001488000000      11.065310000000      24.528318000000
97    1        0.367591000000       6.371411000000      14.880270000000
98    1        2.803955000000       2.433734000000      18.224487000000
99    1        5.349392000000       5.872626000000      16.090870000000
100    1        2.684313000000       4.239547000000      15.713094000000
101    1        7.997495000000       3.909087000000      16.838078000000
102    1        0.407372000000       0.445263000000      18.029049000000
103    1        2.547992000000       4.092620000000      20.928078000000
104    1        0.056650000000       5.929034000000      20.369177000000
105    1        5.274921000000       5.722324000000      21.043703000000
106    1        8.118237000000       4.675700000000      21.706461000000
107    1        9.401163000000       2.908664000000      19.765638000000
108    1        4.929992000000      13.132307000000      16.119921000000
109    1        7.403314000000      11.459014000000      15.445204000000
110    1        0.359345000000      12.912920000000      15.757554000000
111    1        2.569716000000      10.856063000000      16.092684000000
112    1        6.854452000000       9.405945000000      17.840408000000
113    1        5.375330000000       0.656764000000      18.752501000000
114    1       19.641132000000       7.405715000000      17.678757000000
115    1        2.476491000000      11.201916000000      21.180042000000
116    1        0.230095000000      13.429552000000      20.815928000000
117    1        5.232473000000      12.642237000000      20.639872000000
118    1        8.094911000000      11.080121000000      20.154476000000
119    1        1.297952000000       9.367907000000      18.903402000000
120    1        4.280154000000       7.726696000000      18.628958000000
121    1        9.724191000000       5.632545000000      14.812851000000
122    1       14.929751000000       7.330596000000      17.258688000000
123    1       15.180725000000       5.987705000000      14.513414000000
124    1       18.060162000000       4.548708000000      14.880749000000
125    1       12.461953000000       4.485173000000      13.240586000000
126    1       12.805663000000       4.246538000000      18.709452000000
127    1       15.570340000000       5.879682000000      19.750965000000
128    1       18.089840000000       3.855311000000      20.252516000000
129    1       18.284212000000       2.597373000000      17.291096000000
130    1       10.222137000000       6.257921000000      19.766235000000
131    1       12.879261000000       2.894117000000      15.648149000000
132    1       15.380733000000       1.182983000000      16.661518000000
133    1       10.238823000000      13.082417000000      15.432093000000
134    1       13.040877000000      11.235761000000      16.067194000000
135    1       17.421696000000       9.665175000000      17.527340000000
136    1       17.828199000000      11.385318000000      14.953763000000
137    1       15.318457000000      13.149021000000      14.540654000000
138    1        9.116820000000       7.800838000000      16.901489000000
139    1       14.891822000000       8.796866000000      19.120081000000
140    1       13.622120000000      11.421166000000      20.442961000000
141    1       10.759320000000      12.892247000000      19.962084000000
142    1       15.466120000000      13.724797000000      19.314722000000
143    1       17.928761000000      11.899365000000      19.870722000000
144    1       10.886500000000       0.774154000000      17.734114000000
145    2        8.510903000000       3.728777000000      18.468723000000
146    2        7.458078000000       2.465295000000      16.203472000000
147    2        6.382059000000       1.108576000000      14.131175000000
148    2        1.748075000000       1.313333000000      17.509953000000
149    2        9.210338000000       4.465042000000      15.833666000000
150    2        0.210325000000       7.289796000000      16.231941000000
151    2        6.625968000000       4.942059000000      16.675711000000
152    2        1.334519000000       1.465332000000      12.846706000000
153    2        3.990507000000       1.696495000000      12.890537000000
154    2        2.472765000000       2.870671000000      14.781582000000
155    2        4.139737000000       4.861797000000      15.385068000000
156    2        2.563219000000       3.889303000000      17.323320000000
157    2        1.496265000000       5.232970000000      15.212149000000
158    2        4.579138000000       6.642338000000      17.375381000000
159    2        5.787012000000       6.875316000000      14.787379000000
160    2        9.089346000000       1.662158000000      14.255802000000
161    2        4.318828000000       1.937719000000      18.256433000000
162    2        0.877019000000       7.338866000000      13.643284000000
163    2        2.327480000000       3.040441000000      19.661690000000
164    2        1.618722000000       5.418293000000      20.651831000000
165    2        4.132878000000       4.551054000000      21.092531000000
166    2        2.157140000000       3.351150000000      22.340914000000
167    2       19.985737000000       7.259785000000      21.211496000000
168    2        3.422876000000       1.038923000000      22.957520000000
169    2        0.781204000000       1.621808000000      23.661934000000
170    2        5.454893000000       6.509526000000      22.494141000000
171    2        4.870976000000       6.939450000000      19.963717000000
172    2        8.965266000000       3.265526000000      21.210316000000
173    2        9.335128000000       5.790114000000      21.252384000000
174    2        6.781377000000       5.069797000000      20.825718000000
175    2        7.723701000000       3.839345000000      23.170368000000
176    2        6.044396000000       1.602884000000      22.848244000000
177    2       19.750828000000       6.196112000000      18.747272000000
178    2        8.655619000000       1.088129000000      22.763906000000
179    2       10.290911000000       1.750057000000      19.066162000000
180    2        9.402512000000       6.916352000000      18.536917000000
181    2        6.712708000000       1.083326000000      19.545677000000
182    2        7.271724000000      10.295931000000      14.268889000000
183    2        0.227000000000      13.193068000000      17.398653000000
184    2        5.675932000000      14.023945000000      17.268457000000
185    2        0.756903000000       0.127968000000      15.133990000000
186    2        4.010628000000       8.164397000000      13.114988000000
187    2        1.669125000000       9.400819000000      12.381878000000
188    2        1.522672000000      11.852115000000      15.249481000000
189    2        2.995567000000       9.842760000000      14.861191000000
190    2        3.864969000000      11.879033000000      16.614649000000
191    2        1.894394000000      10.307105000000      17.513798000000
192    2        7.411985000000       7.973429000000      17.214724000000
193    2        6.883110000000      10.731425000000      16.823347000000
194    2        6.121777000000      12.474095000000      15.173287000000
195    2        4.178078000000      14.260250000000      15.076202000000
196    2        8.845483000000      12.200299000000      15.277947000000
197    2        6.584412000000       8.400924000000      12.460649000000
198    2        9.091913000000       8.999967000000      12.792074000000
199    2       20.120584000000       8.763106000000      18.719906000000
200    2        1.518694000000      10.279881000000      20.257711000000
201    2        1.639410000000      12.655200000000      21.237755000000
202    2        4.086702000000      11.468984000000      20.757860000000
203    2        2.327855000000      10.534925000000      22.659773000000
204    2        0.404496000000       0.285877000000      19.693249000000
205    2        5.303184000000      13.358077000000      22.181643000000
206    2        4.562526000000      13.712436000000      19.571636000000
207    2        7.848449000000       9.750854000000      19.166864000000
208    2        9.559469000000      11.844039000000      19.544617000000
209    2        6.676042000000      11.980474000000      20.302382000000
210    2        8.698855000000      10.669135000000      21.717234000000
211    2        6.959169000000       8.732149000000      22.663523000000
212    2        4.291845000000       8.800002000000      23.311979000000
213    2        2.704777000000       8.211304000000      18.852783000000
214    2        1.561912000000       8.113433000000      23.280722000000
215    2        5.239821000000       9.058904000000      18.207272000000
216    2        9.616888000000       8.300703000000      22.782803000000
217    2       19.826273000000      13.942205000000      22.189812000000
218    2       11.857867000000       1.658320000000      16.670244000000
219    2       18.909334000000       1.313717000000      13.923207000000
220    2       19.085382000000       5.837145000000      14.482239000000
221    2       19.346012000000       1.322171000000      17.549231000000
222    2       17.778069000000       3.671583000000      13.500438000000
223    2       18.687340000000       3.788181000000      16.209122000000
224    2       11.005964000000       1.748796000000      12.278741000000
225    2       13.843828000000       1.319374000000      11.791791000000
226    2       10.110466000000       6.850082000000      15.917009000000
227    2       12.519481000000       3.802920000000      11.734853000000
228    2       12.538959000000       3.071627000000      14.141746000000
229    2       13.926196000000       5.255068000000      13.538224000000
230    2       11.035717000000       5.064763000000      13.808116000000
231    2       16.319065000000       1.378672000000      12.790504000000
232    2       15.785810000000       7.192413000000      13.582965000000
233    2       14.444343000000       6.612769000000      15.919034000000
234    2       16.427017000000       5.031199000000      15.130523000000
235    2        9.051146000000       6.529403000000      13.631015000000
236    2       12.829082000000       4.090438000000      17.042030000000
237    2       11.359838000000       5.042203000000      19.107040000000
238    2       14.238528000000       4.897266000000      19.519419000000
239    2       12.653777000000       3.014503000000      19.871849000000
240    2       13.598586000000       1.871379000000      22.149723000000
241    2       11.180552000000       1.684499000000      22.080334000000
242    2       15.429220000000       7.223422000000      20.818808000000
243    2       15.950480000000       6.341224000000      18.177364000000
244    2       18.176889000000       3.294651000000      18.743656000000
245    2       19.398193000000       4.604320000000      20.784294000000
246    2       16.901598000000       5.109577000000      20.373138000000
247    2       17.660006000000       2.616096000000      21.240499000000
248    2       18.463764000000       1.334536000000      23.618093000000
249    2       16.798693000000       2.035739000000      16.848909000000
250    2       11.156226000000       7.348736000000      20.664186000000
251    2       15.976486000000       1.853736000000      23.052061000000
252    2       14.388186000000       2.386981000000      16.116339000000
253    2       15.808471000000       8.973779000000      17.640169000000
254    2       16.586235000000       9.181879000000      11.997107000000
255    2        9.954769000000      14.214205000000      16.612461000000
256    2       19.316042000000       8.970081000000      11.983684000000
257    2       18.227880000000       8.176697000000      17.342432000000
258    2       13.830530000000       8.837185000000      12.773024000000
259    2       11.411191000000       8.116141000000      13.552184000000
260    2       13.459471000000      11.110208000000      17.617512000000
261    2       13.064875000000       9.713842000000      15.151687000000
262    2       14.229828000000      12.121521000000      15.266291000000
263    2       11.497690000000      12.059756000000      15.604570000000
264    2       14.683751000000      13.450963000000      13.082911000000
265    2       10.447979000000      13.854292000000      13.974973000000
266    2       17.289864000000      10.802499000000      16.377289000000
267    2       15.683253000000       0.155806000000      15.457387000000
268    2       16.707264000000      12.315972000000      14.229367000000
269    2       18.091267000000      10.118992000000      13.968958000000
270    2       19.132938000000      12.401785000000      15.235745000000
271    2        9.580873000000       9.308540000000      16.600321000000
272    2       14.164948000000       9.857895000000      20.014368000000
273    2       12.160764000000      12.022600000000      20.223166000000
274    2       14.747198000000      12.330911000000      19.700636000000
275    2       13.983539000000      11.250275000000      22.116665000000
276    2       14.698991000000       8.689809000000      22.917036000000
277    2       10.325288000000      13.614451000000      21.352512000000
278    2       12.167771000000       9.319096000000      21.992559000000
279    2       11.342775000000      13.865770000000      18.791958000000
280    2       14.937050000000       0.280952000000      17.986700000000
281    2       15.236293000000       0.626081000000      20.483450000000
282    2       17.784163000000      10.627604000000      18.787905000000
283    2       19.531811000000      12.160815000000      20.279125000000
284    2       17.057848000000      13.143759000000      19.214952000000
285    2       17.452030000000      11.156357000000      21.269842000000
286    2       19.578331000000       9.567250000000      22.454897000000
287    2       17.269299000000       8.661614000000      21.901758000000
288    2       13.809026000000       7.710540000000      18.422127000000
289    3       14.968172000000      11.302052000000      26.749376000000
290    3       14.173126000000      11.500881000000      25.321131000000
291    2       14.365462000000      11.870258000000      26.253036000000
292    3       19.369490000000      13.047933000000      27.916859000000
293    3        0.489980000000      12.459270000000      28.645174000000
294    2       19.943001000000      13.093117000000      28.735857000000
295    3       15.648883000000       6.021270000000      29.540131000000
296    3       16.699162000000       7.194978000000      29.073847000000
297    2       16.162951000000       6.825471000000      29.773073000000
298    3       12.321289000000      11.977348000000       2.922246000000
299    3       11.113238000000      11.634501000000       3.834607000000
300    2       11.422590000000      11.453115000000       2.869972000000
301    3        1.148297000000       2.330459000000      31.991838000000
302    3       20.096863000000       3.068336000000      32.904469000000
303    2        0.773347000000       2.570796000000      32.923027000000
304    3        4.951150000000      11.003432000000      28.453886000000
305    3        4.969164000000      10.732487000000      30.043224000000
306    2        5.457890000000      10.518042000000      29.198063000000
307    3       19.374941000000      13.718083000000      34.497906000000
308    3       17.764780000000      13.741393000000      34.346512000000
309    2       18.549459000000      13.186729000000      34.705639000000
310    3        1.362830000000      13.992214000000      33.501186000000
311    3        0.746741000000       1.039518000000      33.873653000000
312    2        0.852821000000       0.104942000000      34.209518000000
313    3       10.913902000000       6.392084000000      33.881691000000
314    3        9.725572000000       7.393698000000      34.214745000000
315    2       10.176619000000       6.515357000000      34.526138000000
316    3        2.182974000000      12.157734000000       7.879259000000
317    3        3.312572000000      12.655554000000       8.922423000000
318    2        3.065745000000      11.947186000000       8.243328000000
319    3        6.943365000000       7.832613000000       1.631413000000
320    3        5.727551000000       7.433270000000       2.357329000000
321    2        6.167075000000       7.305584000000       1.454488000000
322    3        6.113043000000       8.678577000000       6.800531000000
323    3        4.573327000000       8.398044000000       6.958019000000
324    2        5.432069000000       8.022704000000       6.632874000000
325    3       11.489022000000       8.512011000000       1.621061000000
326    3       11.099092000000       9.577941000000       2.632046000000
327    2       10.808058000000       8.642935000000       2.356748000000
328    3       13.233974000000       4.751460000000      26.280159000000
329    3       14.543667000000       3.822768000000      26.157125000000
330    2       14.141566000000       4.684203000000      26.556791000000
331    3        0.269542000000      10.594854000000       3.072759000000
332    3       19.224092000000       9.706578000000       2.757454000000
333    2       19.676689000000      10.567228000000       2.529579000000
334    3        0.136615000000      10.588455000000       0.847354000000
335    3        1.214810000000      11.295885000000       0.088804000000
336    2        0.755623000000      10.447394000000       0.033461000000
337    3       10.620832000000       3.482694000000      27.091476000000
338    3       11.459973000000       2.564713000000      28.003338000000
339    2       11.066932000000       2.579358000000      27.129244000000
340    3       18.586246000000      12.373005000000      29.913816000000
341    3       17.298105000000      12.714641000000      30.697765000000
342    2       17.830027000000      11.922882000000      30.375034000000
343    3        2.464592000000       6.159612000000      32.670410000000
344    3        1.550184000000       6.846742000000      31.583424000000
345    2        2.388591000000       7.020857000000      32.150864000000
346    3        7.035964000000       3.237622000000       6.175157000000
347    3        6.155127000000       2.964333000000       4.820212000000
348    2        6.870446000000       3.528306000000       5.240026000000
349    3       18.352388000000      13.278117000000       9.198071000000
350    3       18.905584000000      11.896092000000       8.649640000000
351    2       18.682491000000      12.403950000000       9.479979000000
352    3        3.198035000000       8.427798000000       8.639334000000
353    3        3.263973000000       9.917032000000       8.407093000000
354    2        3.274031000000       9.085083000000       7.878780000000
355    3        1.624448000000       9.625385000000       4.683970000000
356    3        2.605623000000      10.651817000000       3.949397000000
357    2        1.645674000000      10.545952000000       4.208716000000
358    3        5.453557000000       1.852761000000      28.171837000000
359    3        5.556860000000       3.181343000000      27.385433000000
360    2        5.896379000000       2.730173000000      28.234257000000
361    3       19.754648000000       4.674474000000      28.353951000000
362    3        0.176321000000       6.007028000000      28.936403000000
363    2       20.215712000000       5.510855000000      28.082411000000
364    3       19.498112000000       4.778745000000       7.433112000000
365    3       19.863279000000       3.244647000000       7.459112000000
366    2       20.089172000000       4.090808000000       7.981914000000
367    3       14.807729000000       4.338673000000      28.627054000000
368    3       15.719829000000       3.628002000000      29.694504000000
369    2       15.045289000000       4.383930000000      29.584269000000
370    3       13.706774000000      10.635979000000       5.590853000000
371    3       12.919384000000      11.875418000000       6.352258000000
372    2       13.662439000000      11.674217000000       5.665839000000
373    3        5.349035000000      13.937888000000      33.797623000000
374    3        4.980028000000      12.381819000000      33.907921000000
375    2        5.090714000000      13.101330000000      33.254890000000
376    3       14.286198000000      13.164896000000      29.865480000000
377    3       13.416951000000       0.208101000000      29.594227000000
378    2       14.259277000000      14.021627000000      29.363287000000
379    3       16.708757000000       4.330842000000       6.086253000000
380    3       15.788897000000       3.139568000000       6.399730000000
381    2       15.754544000000       4.066663000000       6.044075000000
382    3       18.451748000000      11.759344000000      33.684387000000
383    3       18.479887000000      11.227722000000      32.158623000000
384    2       18.065281000000      11.043674000000      33.057896000000
385    3       15.726740000000       3.603631000000      34.715385000000
386    3       15.719891000000       5.166555000000      34.473503000000
387    2       15.730031000000       4.296469000000      34.025589000000
388    3       15.944265000000      11.498771000000       1.178582000000
389    3       14.675474000000      11.448929000000       2.071475000000
390    2       15.217448000000      10.912210000000       1.390089000000
391    3        5.273933000000      11.065901000000      32.672089000000
392    3        5.063374000000       9.579633000000      32.136162000000
393    2        5.098130000000      10.507517000000      31.867891000000
394    3       11.368421000000      12.484334000000       7.971833000000
395    3       12.760226000000      13.100765000000       8.399062000000
396    2       12.217328000000      12.271162000000       8.374630000000
397    3        2.538399000000       5.017099000000       6.728507000000
398    3        1.427610000000       4.668539000000       7.829969000000
399    2        2.225149000000       5.248043000000       7.621441000000
400    3       17.432205000000       8.536485000000       3.502662000000
401    3       18.509226000000       8.330637000000       4.580375000000
402    2       18.419386000000       8.376237000000       3.575581000000
403    3       14.705653000000      11.640928000000      33.948212000000
404    3       14.292471000000      11.505413000000      35.445946000000
405    2       14.063496000000      12.036419000000      34.619293000000
406    3       20.037920000000       5.930608000000      35.362923000000
407    3        0.969302000000       6.998094000000      35.513226000000