# File generated with Atomsk by j281j388 on 2026-06-01 13:00:42

864  atoms
3  atom types

0.000000000000      20.251000000000  xlo xhi
0.000000000000      14.320000000000  ylo yhi
0.000000000000      35.707675000000  zlo zhi

Masses

1   28.08500000             # Si
2   15.99900000             # O
3   1.00800000              # H

Atoms # atomic

1    1        2.426089000000       1.959295000000      12.652857000000
2    2        2.331631000000       3.178279000000      11.619448000000
3    3        1.495582000000       3.522774000000      11.265546000000
4    1       10.347697000000       7.778317000000      12.759931000000
5    2       10.036332000000       6.470310000000      11.796429000000
6    3       10.903084000000       6.125906000000      11.389365000000
7    1        0.060073000000       7.452639000000      12.081089000000
8    2        0.369261000000       6.446954000000      10.784324000000
9    3        1.052133000000       6.768614000000      10.163822000000
10    1        5.376048000000       7.624288000000      12.638045000000
11    2        4.565245000000       7.137544000000      11.291445000000
12    3        5.246386000000       6.789072000000      10.655346000000
13    1        7.707251000000       1.981355000000      12.663130000000
14    2        7.500923000000       2.937715000000      11.334220000000
15    3        6.560195000000       3.037263000000      10.986716000000
16    1       20.054512000000       0.043409000000      12.883802000000
17    2       20.245474000000      13.335548000000      11.539373000000
18    3        0.036551000000      12.346648000000      11.894788000000
19    1       20.173172000000       7.665144000000      22.427530000000
20    2       19.714769000000       6.520257000000      23.531471000000
21    3       18.728184000000       6.640389000000      23.744532000000
22    1        4.888181000000       7.460968000000      22.852997000000
23    2        4.665112000000       6.536968000000      24.217569000000
24    3        4.290556000000       7.094701000000      24.983027000000
25    1        3.014209000000       1.846575000000      22.796816000000
26    2        2.693096000000       3.054432000000      23.984245000000
27    3        2.510255000000       2.647890000000      24.915421000000
28    1        8.188669000000       1.806349000000      22.830902000000
29    2        7.874329000000       2.721511000000      24.161182000000
30    3        6.940443000000       3.137237000000      24.216948000000
31    1        2.766796000000       9.206961000000      12.634773000000
32    2        3.068779000000      10.025161000000      11.161278000000
33    3        3.703059000000      10.688292000000      11.219513000000
34    1        7.874721000000       9.679111000000      12.719279000000
35    2        7.777288000000      11.008584000000      11.749624000000
36    3        6.942428000000      11.556101000000      11.789344000000
37    1        5.062356000000       0.236045000000      12.974454000000
38    2        5.474955000000      13.213590000000      12.110351000000
39    3        5.395674000000      13.264789000000      11.125165000000
40    1        5.680290000000      14.260312000000      23.319191000000
41    2        5.900513000000      13.452764000000      24.822168000000
42    3        6.558872000000      13.943374000000      25.375301000000
43    1        2.437322000000       9.515827000000      22.907377000000
44    2        2.364287000000      10.857367000000      23.826029000000
45    3        3.270310000000      10.976859000000      24.275843000000
46    1        0.370440000000       0.254694000000      22.721317000000
47    2       20.101463000000      13.967673000000      24.174555000000
48    3       20.142815000000      12.979439000000      24.386978000000
49    1        7.677883000000       8.966478000000      23.110220000000
50    2        7.207761000000       9.527298000000      24.609798000000
51    3        7.961278000000      10.012862000000      25.094194000000
52    1       10.641929000000      14.232198000000      23.184269000000
53    2       10.405389000000      13.436970000000      24.687235000000
54    3       10.966923000000      13.802829000000      25.446932000000
55    1       12.873875000000       1.903456000000      12.629170000000
56    2       13.271788000000       2.818021000000      11.239210000000
57    3       13.538216000000       2.371481000000      10.348781000000
58    1       14.968819000000       7.911825000000      12.543239000000
59    2       14.635940000000       6.798982000000      11.405013000000
60    3       13.781398000000       6.285178000000      11.629560000000
61    1       17.738400000000       2.051315000000      12.369013000000
62    2       17.872446000000       2.418482000000      10.706287000000
63    3       18.864412000000       2.620915000000      10.453170000000
64    1       10.375168000000       7.259734000000      23.077339000000
65    2       10.592639000000       6.328164000000      24.388613000000
66    3       11.175531000000       6.401574000000      25.275404000000
67    1       12.820518000000       1.830333000000      22.699884000000
68    2       12.385333000000       2.774905000000      24.056534000000
69    3       11.625853000000       3.382046000000      23.849075000000
70    1       18.218941000000       2.236906000000      22.368397000000
71    2       18.065231000000       3.628519000000      23.410791000000
72    3       18.832451000000       4.242686000000      23.511536000000
73    1       15.598557000000       7.876779000000      22.813221000000
74    2       16.436131000000       7.061675000000      23.919909000000
75    3       16.261721000000       7.270705000000      24.862535000000
76    1       12.655012000000       9.771924000000      12.640028000000
77    2       12.401705000000      10.989198000000      11.556697000000
78    3       11.473825000000      10.865255000000      11.126408000000
79    1       17.899637000000       9.337471000000      12.610568000000
80    2       17.714558000000      10.793991000000      11.881503000000
81    3       17.072515000000      11.478116000000      12.074748000000
82    1       15.433804000000       0.183168000000      12.779330000000
83    2       15.928473000000      13.383462000000      11.646845000000
84    3       15.490807000000      13.424588000000      10.798937000000
85    1       10.247632000000       0.403159000000      12.883723000000
86    2       10.819973000000      13.454308000000      12.024103000000
87    3       11.707888000000      13.060383000000      11.922497000000
88    1       15.576610000000       0.385425000000      22.936470000000
89    2       15.341924000000      14.151886000000      24.455494000000
90    3       15.521894000000      13.338445000000      24.933096000000
91    1       12.795613000000       9.265287000000      23.168434000000
92    2       12.179595000000       9.868308000000      24.591951000000
93    3       11.159006000000      10.176348000000      24.707012000000
94    1       17.735312000000       9.937067000000      22.647161000000
95    2       17.782076000000      10.254769000000      24.205477000000
96    3       17.218513000000      11.031150000000      24.458246000000
97    1       20.181559000000       5.856605000000      14.872080000000
98    1        2.730493000000       2.204327000000      17.702452000000
99    1        5.287145000000       5.368201000000      14.942699000000
100    1        2.554039000000       3.888581000000      15.012280000000
101    1        7.930379000000       3.786401000000      15.178864000000
102    1        0.166472000000       0.690395000000      17.572186000000
103    1        2.585635000000       3.748347000000      20.298555000000
104    1        0.229538000000       5.645804000000      20.118090000000
105    1        5.035191000000       5.581413000000      20.321571000000
106    1        7.512749000000       3.847791000000      20.394854000000
107    1        7.675049000000       2.058561000000      17.844627000000
108    1        5.089890000000      12.835771000000      15.510257000000
109    1        7.706564000000      11.146570000000      15.502172000000
110    1        0.058307000000      12.519211000000      15.665817000000
111    1        2.660084000000      10.832909000000      15.216831000000
112    1        7.505863000000       9.041663000000      17.880766000000
113    1        5.283278000000       0.202178000000      18.155722000000
114    1        0.092144000000       7.224229000000      17.637886000000
115    1        2.363639000000      11.129360000000      20.003792000000
116    1       20.241882000000      13.229448000000      19.941422000000
117    1        5.056311000000      12.610558000000      20.642859000000
118    1        7.563359000000      10.708337000000      20.525640000000
119    1        2.647618000000       9.098213000000      17.743568000000
120    1        5.114876000000       7.112739000000      17.662304000000
121    1       10.325689000000       5.925155000000      15.297389000000
122    1       15.086758000000       7.293580000000      17.843618000000
123    1       15.196590000000       5.940428000000      15.104681000000
124    1       17.648956000000       4.047447000000      14.669557000000
125    1       12.692319000000       4.009263000000      15.033054000000
126    1       12.545751000000       3.778861000000      20.322943000000
127    1       14.971971000000       5.619315000000      20.506245000000
128    1       17.681141000000       3.948304000000      19.887396000000
129    1       17.798901000000       2.291365000000      17.269449000000
130    1        9.939100000000       5.656431000000      20.429808000000
131    1       12.827664000000       2.352159000000      17.544382000000
132    1       15.367712000000       0.334081000000      17.746069000000
133    1       10.213216000000      13.247910000000      15.591794000000
134    1       12.629596000000      11.303442000000      15.290519000000
135    1       17.704552000000       8.743048000000      18.329987000000
136    1       17.880629000000      10.481441000000      15.573963000000
137    1       15.507703000000      12.686386000000      15.272386000000
138    1       10.312517000000       7.505727000000      17.834492000000
139    1       12.904961000000       9.414290000000      17.836397000000
140    1       12.757762000000      10.968155000000      20.481207000000
141    1       10.108041000000      12.567238000000      20.559477000000
142    1       15.056066000000      13.035672000000      20.251945000000
143    1       17.747248000000      11.505522000000      20.023121000000
144    1       10.404444000000       0.389385000000      18.358137000000
145    2        8.050710000000       2.957867000000      16.563229000000
146    2        8.318380000000       2.845624000000      13.904584000000
147    2        6.175942000000       1.477139000000      12.955870000000
148    2        1.749007000000       0.968899000000      16.981108000000
149    2        8.949412000000       5.057649000000      15.233510000000
150    2        0.087672000000       7.025080000000      16.021595000000
151    2        6.327526000000       4.089329000000      14.880477000000
152    2        0.996876000000       1.125218000000      12.713840000000
153    2        3.631271000000       0.940575000000      12.397565000000
154    2        2.754422000000       2.537715000000      14.192782000000
155    2        3.766438000000       4.956651000000      14.468235000000
156    2        2.826887000000       3.482483000000      16.638634000000
157    2        1.217997000000       4.782711000000      14.809957000000
158    2        5.200485000000       6.005800000000      16.425905000000
159    2        5.873112000000       6.447217000000      13.728700000000
160    2        8.813982000000       0.810382000000      12.224723000000
161    2        4.089840000000       1.358841000000      18.085361000000
162    2       19.844582000000       6.457556000000      13.365037000000
163    2        1.966567000000       2.772582000000      19.103100000000
164    2        1.364074000000       4.733394000000      20.865149000000
165    2        3.814860000000       4.692614000000      19.731255000000
166    2        3.248755000000       2.790483000000      21.446854000000
167    2        0.118372000000       7.098452000000      20.890043000000
168    2        4.520423000000       1.085321000000      23.382755000000
169    2        1.978414000000       0.627221000000      22.785439000000
170    2        4.366790000000       6.785952000000      21.367544000000
171    2        5.764592000000       6.316263000000      19.006002000000
172    2        6.914707000000       2.950096000000      19.164116000000
173    2        8.473269000000       5.036404000000      19.866999000000
174    2        6.199760000000       4.574987000000      21.085957000000
175    2        8.047361000000       2.864112000000      21.557131000000
176    2        7.178423000000       0.481977000000      22.788851000000
177    2        0.571510000000       5.943230000000      18.460238000000
178    2        9.724151000000       1.221245000000      23.120319000000
179    2        9.149683000000       1.511323000000      18.370903000000
180    2       10.170173000000       6.874244000000      19.358887000000
181    2        6.697021000000       0.807013000000      17.507294000000
182    2        7.630487000000      10.004223000000      14.327630000000
183    2       19.861645000000      13.632350000000      16.836388000000
184    2        4.782851000000      13.395933000000      17.062305000000
185    2       20.174822000000      13.265582000000      14.191079000000
186    2        4.218768000000       8.666386000000      13.249182000000
187    2        1.523895000000       8.103236000000      12.550220000000
188    2        1.605325000000      11.942792000000      15.727490000000
189    2        2.155794000000      10.403605000000      13.643457000000
190    2        4.118188000000      11.556066000000      15.126536000000
191    2        3.048496000000       9.465354000000      16.095335000000
192    2        8.793415000000       8.046843000000      17.300123000000
193    2        7.420439000000      10.440073000000      16.914152000000
194    2        6.646372000000      12.361581000000      15.310485000000
195    2        4.735968000000      14.077829000000      14.547503000000
196    2        9.218374000000      11.940154000000      15.346250000000
197    2        6.733790000000       8.550467000000      12.348660000000
198    2        9.391389000000       9.117957000000      12.371558000000
199    2        1.095470000000       8.564724000000      17.937744000000
200    2        2.911884000000      10.368582000000      18.658846000000
201    2        0.981943000000      11.921588000000      19.538012000000
202    2        3.487952000000      12.267593000000      20.447754000000
203    2        2.189665000000      10.154902000000      21.315025000000
204    2        0.171316000000       0.340390000000      19.180048000000
205    2        5.205937000000      13.123160000000      22.191483000000
206    2        5.437690000000      13.946505000000      19.692598000000
207    2        7.614124000000       9.460360000000      19.381205000000
208    2        8.624136000000      11.881105000000      20.147865000000
209    2        6.021099000000      11.274065000000      20.431166000000
210    2        7.911318000000      10.167766000000      22.022335000000
211    2        6.534892000000       7.814719000000      22.711864000000
212    2        3.959411000000       8.838284000000      23.132452000000
213    2        3.656253000000       7.825497000000      18.033779000000
214    2        1.256222000000       8.369607000000      23.123796000000
215    2        6.161784000000       8.316628000000      17.313658000000
216    2        9.248279000000       8.462173000000      23.378189000000
217    2        0.110645000000      13.408654000000      21.550224000000
218    2       11.823402000000       1.197697000000      18.222008000000
219    2       18.634123000000       0.759303000000      12.954082000000
220    2       18.834051000000       5.038186000000      15.245788000000
221    2       19.453117000000       1.979818000000      17.378090000000
222    2       18.133532000000       3.417473000000      13.201514000000
223    2       17.442484000000       2.789685000000      15.775196000000
224    2       11.255921000000       1.746813000000      12.749877000000
225    2       13.746332000000       0.532962000000      12.741702000000
226    2       10.862020000000       6.323999000000      16.811729000000
227    2       13.205747000000       2.937747000000      13.886342000000
228    2       12.269570000000       3.195729000000      16.365755000000
229    2       13.863468000000       5.060789000000      15.526666000000
230    2       11.394020000000       4.864663000000      14.604710000000
231    2       16.170654000000       1.617345000000      12.556448000000
232    2       14.725740000000       7.146185000000      13.966246000000
233    2       15.773749000000       6.571261000000      16.571148000000
234    2       16.291937000000       4.990738000000      14.414893000000
235    2       10.304670000000       7.315206000000      14.384102000000
236    2       13.129590000000       3.484947000000      18.822849000000
237    2       11.122365000000       4.558098000000      20.160627000000
238    2       13.774109000000       4.615372000000      21.031029000000
239    2       12.259370000000       2.458343000000      21.290655000000
240    2       14.435820000000       1.536345000000      22.592772000000
241    2       12.200559000000       0.242257000000      22.833694000000
242    2       15.052402000000       6.819970000000      21.661186000000
243    2       14.490438000000       6.228880000000      18.974274000000
244    2       17.620934000000       3.595928000000      18.328096000000
245    2       18.944035000000       4.918734000000      20.343590000000
246    2       16.422089000000       4.878253000000      20.314796000000
247    2       17.740345000000       2.581110000000      20.842194000000
248    2       19.804064000000       1.706716000000      22.360001000000
249    2       16.854889000000       0.995500000000      17.637978000000
250    2        9.789968000000       6.196076000000      21.942022000000
251    2       17.050091000000       1.225998000000      23.006424000000
252    2       14.193646000000       1.419422000000      17.114531000000
253    2       16.242912000000       8.106736000000      18.708914000000
254    2       16.603649000000       8.332383000000      12.251683000000
255    2       10.232105000000      13.700266000000      17.119568000000
256    2       19.162994000000       8.669891000000      11.759949000000
257    2       18.854179000000       7.580402000000      18.195225000000
258    2       14.204884000000       9.359537000000      12.615231000000
259    2       11.840074000000       8.357635000000      12.224036000000
260    2       12.807200000000      10.693876000000      16.791092000000
261    2       12.069788000000      10.145285000000      14.164248000000
262    2       14.169436000000      11.729995000000      14.834714000000
263    2       11.783269000000      12.670208000000      15.022924000000
264    2       15.843702000000      13.923462000000      14.246889000000
265    2        9.801807000000       0.149704000000      14.515542000000
266    2       17.518154000000       9.461478000000      16.772642000000
267    2       15.270308000000      13.208658000000      16.852810000000
268    2       16.796894000000      11.664038000000      15.187114000000
269    2       18.122965000000       9.451595000000      14.224687000000
270    2       19.338560000000      11.196705000000      15.844377000000
271    2       11.363834000000       8.811089000000      17.866354000000
272    2       13.291267000000      10.007051000000      19.295591000000
273    2       11.133451000000      11.282631000000      20.285364000000
274    2       13.554526000000      12.341350000000      20.242109000000
275    2       13.057507000000      10.355782000000      21.933203000000
276    2       14.231508000000       8.555119000000      23.660418000000
277    2       10.144598000000      12.969398000000      22.208719000000
278    2       11.797649000000       8.133665000000      22.571428000000
279    2       10.378522000000      14.003268000000      19.807482000000
280    2       14.969078000000       0.064639000000      19.314129000000
281    2       15.636682000000      13.511080000000      21.713692000000
282    2       18.082726000000       9.941924000000      19.403048000000
283    2       18.622438000000      12.866071000000      19.602633000000
284    2       16.168606000000      11.963618000000      19.663740000000
285    2       17.919209000000      11.346170000000      21.666622000000
286    2       19.046379000000       8.908910000000      22.387119000000
287    2       16.392605000000       9.195552000000      22.067724000000
288    2       13.883736000000       8.183909000000      17.185606000000
289    3       15.583142000000      12.201733000000      26.898767000000
290    3       14.596785000000      11.273894000000      26.121815000000
291    2       14.799831000000      12.243017000000      26.283340000000
292    3       19.298136000000      13.652575000000      27.780722000000
293    3        0.289725000000      13.116457000000      28.571657000000
294    2       19.623653000000      13.468697000000      28.655102000000
295    3       16.161015000000       6.759576000000      29.831303000000
296    3       17.078875000000       7.959214000000      29.178045000000
297    2       16.710543000000       7.632152000000      30.053137000000
298    3       12.633054000000      11.455210000000       3.569056000000
299    3       11.434595000000      11.302208000000       4.248494000000
300    2       11.750737000000      11.074791000000       3.356919000000
301    3        0.843339000000       2.847805000000      32.237629000000
302    3       19.926207000000       3.600744000000      32.812237000000
303    2        0.520920000000       3.224541000000      33.111557000000
304    3        5.556041000000      10.943290000000      28.819485000000
305    3        5.797805000000      10.803623000000      30.381691000000
306    2        6.157135000000      10.508783000000      29.481058000000
307    3       19.323406000000      13.935768000000      34.499001000000
308    3       17.728363000000      14.108474000000      34.286777000000
309    2       18.435150000000      13.504926000000      34.691967000000
310    3        1.052425000000       0.166202000000      33.476662000000
311    3        0.329694000000       1.353387000000      34.178642000000
312    2        0.564982000000       0.424937000000      34.300087000000
313    3       11.691168000000       6.408136000000      33.810867000000
314    3       10.347338000000       7.213927000000      34.194725000000
315    2       10.989851000000       6.542554000000      34.530136000000
316    3        2.746738000000      12.644395000000       8.088927000000
317    3        4.136480000000      12.449559000000       8.924053000000
318    2        3.579466000000      12.030158000000       8.195972000000
319    3        7.184842000000       8.364005000000       1.632882000000
320    3        5.758210000000       8.128224000000       2.351930000000
321    2        6.201141000000       8.095778000000       1.414741000000
322    3        6.526788000000       9.045815000000       6.746101000000
323    3        4.788354000000       8.635868000000       6.814428000000
324    2        5.793062000000       8.392473000000       6.429855000000
325    3       11.639818000000       8.651080000000       1.508435000000
326    3       11.163707000000       9.328601000000       2.955254000000
327    2       11.046060000000       8.616870000000       2.311660000000
328    3       13.729815000000       5.945627000000      27.635159000000
329    3       14.848808000000       4.966161000000      26.807981000000
330    2       14.686649000000       5.665948000000      27.506655000000
331    3       19.861671000000      11.903422000000       3.554911000000
332    3       18.928726000000      10.734653000000       3.620959000000
333    2       19.266415000000      11.393877000000       2.945558000000
334    3        0.400471000000      10.734275000000       1.636616000000
335    3        1.487581000000      11.741939000000       1.324109000000
336    2        1.249487000000      10.769085000000       1.208155000000
337    3       10.753797000000       3.567433000000      26.980711000000
338    3       11.443604000000       3.193965000000      28.460131000000
339    2       11.557043000000       3.655462000000      27.557875000000
340    3       18.292627000000      13.044128000000      30.152699000000
341    3       17.075344000000      13.808123000000      30.744907000000
342    2       17.440922000000      12.857969000000      30.623554000000
343    3        2.507712000000       6.177094000000      32.890575000000
344    3        1.861358000000       6.759042000000      31.539116000000
345    2        2.411673000000       7.048838000000      32.350330000000
346    3        6.973874000000       3.039320000000       6.062227000000
347    3        5.947838000000       3.577651000000       4.980613000000
348    2        6.829584000000       3.841075000000       5.431887000000
349    3       15.998200000000      14.231829000000       8.768015000000
350    3       15.001983000000      13.289981000000       8.050555000000
351    2       15.207541000000      13.688271000000       8.927739000000
352    3        3.102470000000       8.780697000000       8.246913000000
353    3        3.655549000000      10.272777000000       8.108366000000
354    2        3.551140000000       9.434820000000       7.589352000000
355    3        1.245333000000      11.047039000000       5.181839000000
356    3        1.592105000000      12.448690000000       4.659550000000
357    2        0.787413000000      11.923219000000       4.908503000000
358    3        5.479970000000       2.307296000000      27.573532000000
359    3        5.166167000000       3.478206000000      26.654430000000
360    2        5.623038000000       3.264744000000      27.568043000000
361    3       19.353237000000       4.799637000000      27.779356000000
362    3       20.188992000000       5.738718000000      28.842861000000
363    2       19.805059000000       5.663166000000      27.919012000000
364    3       19.894239000000       4.989830000000       7.655592000000
365    3       19.630819000000       3.500987000000       7.269378000000
366    2        0.029091000000       4.118998000000       7.885186000000
367    3       14.915082000000       5.302327000000      28.984674000000
368    3       16.045752000000       4.500267000000      29.930655000000
369    2       15.324317000000       5.284792000000      29.921906000000
370    3       14.763460000000      11.517281000000       6.521964000000
371    3       13.843060000000      12.722665000000       6.257143000000
372    2       14.794293000000      12.532220000000       6.523968000000
373    3        4.508839000000       0.217009000000      34.222057000000
374    3        4.402671000000      12.942590000000      34.241386000000
375    2        3.940717000000      13.787086000000      34.015057000000
376    3       13.946959000000      13.513429000000      30.095894000000
377    3       13.041799000000       0.387424000000      29.734648000000
378    2       13.933294000000       0.015281000000      29.538807000000
379    3       17.281647000000       6.134811000000       6.227233000000
380    3       16.115702000000       5.072873000000       6.105422000000
381    2       16.336864000000       6.035648000000       5.880114000000
382    3       18.407953000000      12.018322000000      33.593128000000
383    3       18.050165000000      11.987956000000      32.121075000000
384    2       18.053877000000      11.387258000000      32.944748000000
385    3       16.848751000000       4.165006000000      34.967838000000
386    3       16.626200000000       5.708846000000      34.764229000000
387    2       16.618490000000       4.832670000000      34.255550000000
388    3       16.057335000000      11.532764000000       1.392720000000
389    3       14.975710000000      11.686831000000       2.419637000000
390    2       15.213554000000      11.054071000000       1.687305000000
391    3        5.325017000000      11.197339000000      32.625450000000
392    3        4.999725000000       9.685557000000      32.104706000000
393    2        4.975446000000      10.657712000000      31.838070000000
394    3       11.449088000000      13.414969000000       8.745371000000
395    3       12.629423000000      12.395988000000       9.065883000000
396    2       11.723523000000      12.488529000000       8.694729000000
397    3        2.369254000000       5.347600000000       6.297279000000
398    3        1.598277000000       4.629511000000       7.300920000000
399    2        2.480420000000       5.151540000000       7.263449000000
400    3       17.340343000000       9.313515000000       4.121345000000
401    3       18.368753000000       9.092904000000       5.471653000000
402    2       18.292538000000       9.109896000000       4.461615000000
403    3       14.526760000000      11.618641000000      34.340656000000
404    3       13.839527000000      11.597202000000       0.032325000000
405    2       13.740516000000      11.988081000000      34.816360000000
406    3        0.112017000000       5.992264000000       0.037493000000
407    3        1.085810000000       7.244803000000       0.176736000000